LAMMPS (23 Jun 2022 - Update 4)
units		metal
dimension	3
boundary	p p p
atom_style	full
newton on
variable    	dt equal 0.0005

#Read in Bottom Atoms
read_data	structure.txt
Reading data file ...
  triclinic box = (0 0 0) to (13.18 11.414215 20) with tilt (6.59 0 0)
  1 by 1 by 1 MPI processor grid
  reading atoms ...
  48 atoms
Finding 1-2 1-3 1-4 neighbors ...
  special bond factors lj:    0        0        0       
  special bond factors coul:  0        0        0       
     0 = max # of 1-2 neighbors
     0 = max # of 1-3 neighbors
     0 = max # of 1-4 neighbors
     1 = max # of special neighbors
  special bonds CPU = 0.000 seconds
  read_data CPU = 0.005 seconds

# defining some group
group upper type 3 4
0 atoms in group upper
group lower type 1 2
48 atoms in group lower



# ------Force Fields --------
# Interaction potential for carbon atoms
######################## Potential defition ########################
pair_style sw/mod maxdelcs 0.25 0.35
pair_coeff * * tmd.sw.mod W Se
Reading sw potential file tmd.sw.mod with DATE: 2018-03-26
####################################################################

neighbor		2.0 bin
neigh_modify	delay 0 one 10000

delete_atoms overlap 0.4 all all
System init for delete_atoms ...
Neighbor list info ...
  update every 1 steps, delay 0 steps, check yes
  max neighbors/atom: 10000, page size: 100000
  master list distance cutoff = 5.310434
  ghost atom cutoff = 5.310434
  binsize = 2.655217, bins = 8 5 8
  2 neighbor lists, perpetual/occasional/extra = 1 1 0
  (1) command delete_atoms, occasional, copy from (2)
      attributes: full, newton on
      pair build: copy
      stencil: none
      bin: none
  (2) pair sw/mod, perpetual
      attributes: full, newton on
      pair build: full/bin
      stencil: full/bin/3d
      bin: standard
Neighbor list info ...
  update every 1 steps, delay 0 steps, check yes
  max neighbors/atom: 10000, page size: 100000
  master list distance cutoff = 5.310434
  ghost atom cutoff = 5.310434
  binsize = 2.655217, bins = 8 5 8
  0 neighbor lists, perpetual/occasional/extra = 0 0 0
WARNING: Ignoring 'compress yes' for molecular system (../delete_atoms.cpp:140)
Deleted 0 atoms, new total = 48


compute csym all centro/atom 12
compute mytemp all temp
compute 2 all stress/atom mytemp
compute 21 all reduce sum c_2[1]
compute 22 all reduce sum c_2[2]
compute 23 all reduce sum c_2[3]
compute 24 all reduce sum c_2[4]
compute 25 all reduce sum c_2[5]
compute 26 all reduce sum c_2[6]

compute 3 all pe/atom
compute 4 all reduce sum c_3
compute 6 all pair sw/mod





timestep	0.0005

thermo         100
thermo_style   custom step pe ke etotal temp c_mytemp c_6

fix            cal_nve all nve



dump           mydump2 all custom 50 minimize.dump id type x y z c_csym c_2[1] c_2[2] c_2[3] c_2[4] c_2[5] c_2[6] c_3

minimize       1e-11 1e-12 5000 10000000
Neighbor list info ...
  update every 1 steps, delay 0 steps, check yes
  max neighbors/atom: 10000, page size: 100000
  master list distance cutoff = 5.310434
  ghost atom cutoff = 5.310434
  binsize = 2.655217, bins = 8 5 8
  2 neighbor lists, perpetual/occasional/extra = 1 1 0
  (1) pair sw/mod, perpetual
      attributes: full, newton on
      pair build: full/bin
      stencil: full/bin/3d
      bin: standard
  (2) compute centro/atom, occasional, copy from (1)
      attributes: full, newton on
      pair build: copy
      stencil: none
      bin: none
Per MPI rank memory allocation (min/avg/max) = 10.64 | 10.64 | 10.64 Mbytes
   Step         PotEng         KinEng         TotEng          Temp         c_mytemp         c_6      
         0  -8.2437133      0             -8.2437133      0              0             -8.2437133    
         8  -74.962392      0             -74.962392      0              0             -74.962392    
Loop time of 0.00195579 on 1 procs for 8 steps with 48 atoms

69.1% CPU use with 1 MPI tasks x no OpenMP threads

Minimization stats:
  Stopping criterion = linesearch alpha is zero
  Energy initial, next-to-last, final = 
     -8.24371327116834  -74.9623921142501  -74.9623921142501
  Force two-norm initial, final = 50.391639 0.034508244
  Force max component initial, final = 6.9946703 0.0050321896
  Final line search alpha, max atom move = 1.5258789e-05 7.678512e-08
  Iterations, force evaluations = 8 43

MPI task timing breakdown:
Section |  min time  |  avg time  |  max time  |%varavg| %total
---------------------------------------------------------------
Pair    | 0.0010097  | 0.0010097  | 0.0010097  |   0.0 | 51.63
Bond    | 4.121e-06  | 4.121e-06  | 4.121e-06  |   0.0 |  0.21
Neigh   | 0          | 0          | 0          |   0.0 |  0.00
Comm    | 6.022e-05  | 6.022e-05  | 6.022e-05  |   0.0 |  3.08
Output  | 0          | 0          | 0          |   0.0 |  0.00
Modify  | 0          | 0          | 0          |   0.0 |  0.00
Other   |            | 0.0008817  |            |       | 45.08

Nlocal:             48 ave          48 max          48 min
Histogram: 1 0 0 0 0 0 0 0 0 0
Nghost:            129 ave         129 max         129 min
Histogram: 1 0 0 0 0 0 0 0 0 0
Neighs:              0 ave           0 max           0 min
Histogram: 1 0 0 0 0 0 0 0 0 0
FullNghs:         1056 ave        1056 max        1056 min
Histogram: 1 0 0 0 0 0 0 0 0 0

Total # of neighbors = 1056
Ave neighs/atom = 22
Ave special neighs/atom = 0
Neighbor list builds = 0
Dangerous builds = 0

unfix cal_nve
undump mydump2
Total wall time: 0:00:00
