ITEM: TIMESTEP
0
ITEM: NUMBER OF ATOMS
48
ITEM: BOX BOUNDS xy xz yz pp pp pp
0.0000000000000000e+00 1.9770000000000000e+01 6.5899999999999999e+00
0.0000000000000000e+00 1.1414214821900000e+01 0.0000000000000000e+00
0.0000000000000000e+00 2.0000000000000000e+01 0.0000000000000000e+00
ITEM: ATOMS id type x y z c_csym c_2[1] c_2[2] c_2[3] c_2[4] c_2[5] c_2[6] c_3
1 1 0 0 10 3.63246e-29 -889506 -2.66852e+06 -1.82006e+07 1.54067e+06 -6.9071e+06 1.19635e+07 -0.299296
2 1 14.8275 2.85355 10 3e-20 -889506 -2.66852e+06 -1.82006e+07 1.54067e+06 -6.9071e+06 1.19635e+07 -0.299296
3 1 3.295 5.70711 10 3e-20 -889506 -2.66852e+06 -1.82006e+07 1.54067e+06 -6.9071e+06 1.19635e+07 -0.299296
4 1 4.9425 8.56066 10 1.26218e-29 -889506 -2.66852e+06 -1.82006e+07 1.54067e+06 -6.9071e+06 1.19635e+07 -0.299296
5 1 3.295 0 10 8.55421e-30 -889506 -2.66852e+06 -1.82006e+07 1.54067e+06 -6.9071e+06 1.19635e+07 -0.299296
6 1 4.9425 2.85355 10 3e-20 -889506 -2.66852e+06 -1.82006e+07 1.54067e+06 -6.9071e+06 1.19635e+07 -0.299296
7 1 6.59 5.70711 10 3e-20 -889506 -2.66852e+06 -1.82006e+07 1.54067e+06 -6.9071e+06 1.19635e+07 -0.299296
8 1 8.2375 8.56066 10 2.52435e-29 -889506 -2.66852e+06 -1.82006e+07 1.54067e+06 -6.9071e+06 1.19635e+07 -0.299296
9 1 6.59 0 10 3.82105e-30 -889506 -2.66852e+06 -1.82006e+07 1.54067e+06 -6.9071e+06 1.19635e+07 -0.299296
10 1 8.2375 2.85355 10 3e-20 -889506 -2.66852e+06 -1.82006e+07 1.54067e+06 -6.9071e+06 1.19635e+07 -0.299296
11 1 9.885 5.70711 10 3e-20 -889506 -2.66852e+06 -1.82006e+07 1.54067e+06 -6.9071e+06 1.19635e+07 -0.299296
12 1 11.5325 8.56066 10 1.26218e-29 -889506 -2.66852e+06 -1.82006e+07 1.54067e+06 -6.9071e+06 1.19635e+07 -0.299296
13 1 9.885 0 10 2.59092e-29 -889506 -2.66852e+06 -1.82006e+07 1.54067e+06 -6.9071e+06 1.19635e+07 -0.299296
14 1 11.5325 2.85355 10 3e-20 -889506 -2.66852e+06 -1.82006e+07 1.54067e+06 -6.9071e+06 1.19635e+07 -0.299296
15 1 13.18 5.70711 10 3e-20 -889506 -2.66852e+06 -1.82006e+07 1.54067e+06 -6.9071e+06 1.19635e+07 -0.299296
16 1 14.8275 8.56066 10 3.78653e-29 -889506 -2.66852e+06 -1.82006e+07 1.54067e+06 -6.9071e+06 1.19635e+07 -0.299296
17 2 2.19667 1.90237 11.575 0 -680299 -2.0409e+06 -8.55026e+06 1.17831e+06 -3.50629e+06 6.07308e+06 -0.107968
18 2 2.74583 0.951185 8.425 0 -680299 -2.0409e+06 -8.55026e+06 1.17831e+06 -3.50629e+06 6.07308e+06 -0.107968
19 2 3.84417 4.75592 11.575 0 -680299 -2.0409e+06 -8.55026e+06 1.17831e+06 -3.50629e+06 6.07308e+06 -0.107968
20 2 4.39333 3.80474 8.425 0 -680299 -2.0409e+06 -8.55026e+06 1.17831e+06 -3.50629e+06 6.07308e+06 -0.107968
21 2 5.49167 7.60948 11.575 0 -680299 -2.0409e+06 -8.55026e+06 1.17831e+06 -3.50629e+06 6.07308e+06 -0.107968
22 2 6.04083 6.65829 8.425 0 -680299 -2.0409e+06 -8.55026e+06 1.17831e+06 -3.50629e+06 6.07308e+06 -0.107968
23 2 7.13917 10.463 11.575 0 -680299 -2.0409e+06 -8.55026e+06 1.17831e+06 -3.50629e+06 6.07308e+06 -0.107968
24 2 7.68833 9.51185 8.425 0 -680299 -2.0409e+06 -8.55026e+06 1.17831e+06 -3.50629e+06 6.07308e+06 -0.107968
25 2 5.49167 1.90237 11.575 0 -680299 -2.0409e+06 -8.55026e+06 1.17831e+06 -3.50629e+06 6.07308e+06 -0.107968
26 2 6.04083 0.951185 8.425 0 -680299 -2.0409e+06 -8.55026e+06 1.17831e+06 -3.50629e+06 6.07308e+06 -0.107968
27 2 7.13917 4.75592 11.575 0 -680299 -2.0409e+06 -8.55026e+06 1.17831e+06 -3.50629e+06 6.07308e+06 -0.107968
28 2 7.68833 3.80474 8.425 0 -680299 -2.0409e+06 -8.55026e+06 1.17831e+06 -3.50629e+06 6.07308e+06 -0.107968
29 2 8.78667 7.60948 11.575 0 -680299 -2.0409e+06 -8.55026e+06 1.17831e+06 -3.50629e+06 6.07308e+06 -0.107968
30 2 9.33583 6.65829 8.425 0 -680299 -2.0409e+06 -8.55026e+06 1.17831e+06 -3.50629e+06 6.07308e+06 -0.107968
31 2 10.4342 10.463 11.575 0 -680299 -2.0409e+06 -8.55026e+06 1.17831e+06 -3.50629e+06 6.07308e+06 -0.107968
32 2 10.9833 9.51185 8.425 0 -680299 -2.0409e+06 -8.55026e+06 1.17831e+06 -3.50629e+06 6.07308e+06 -0.107968
33 2 8.78667 1.90237 11.575 0 -680299 -2.0409e+06 -8.55026e+06 1.17831e+06 -3.50629e+06 6.07308e+06 -0.107968
34 2 9.33583 0.951185 8.425 0 -680299 -2.0409e+06 -8.55026e+06 1.17831e+06 -3.50629e+06 6.07308e+06 -0.107968
35 2 10.4342 4.75592 11.575 0 -680299 -2.0409e+06 -8.55026e+06 1.17831e+06 -3.50629e+06 6.07308e+06 -0.107968
36 2 10.9833 3.80474 8.425 0 -680299 -2.0409e+06 -8.55026e+06 1.17831e+06 -3.50629e+06 6.07308e+06 -0.107968
37 2 12.0817 7.60948 11.575 0 -680299 -2.0409e+06 -8.55026e+06 1.17831e+06 -3.50629e+06 6.07308e+06 -0.107968
38 2 12.6308 6.65829 8.425 0 -680299 -2.0409e+06 -8.55026e+06 1.17831e+06 -3.50629e+06 6.07308e+06 -0.107968
39 2 13.7292 10.463 11.575 0 -680299 -2.0409e+06 -8.55026e+06 1.17831e+06 -3.50629e+06 6.07308e+06 -0.107968
40 2 14.2783 9.51185 8.425 0 -680299 -2.0409e+06 -8.55026e+06 1.17831e+06 -3.50629e+06 6.07308e+06 -0.107968
41 2 12.0817 1.90237 11.575 0 -680299 -2.0409e+06 -8.55026e+06 1.17831e+06 -3.50629e+06 6.07308e+06 -0.107968
42 2 12.6308 0.951185 8.425 0 -680299 -2.0409e+06 -8.55026e+06 1.17831e+06 -3.50629e+06 6.07308e+06 -0.107968
43 2 13.7292 4.75592 11.575 0 -680299 -2.0409e+06 -8.55026e+06 1.17831e+06 -3.50629e+06 6.07308e+06 -0.107968
44 2 14.2783 3.80474 8.425 0 -680299 -2.0409e+06 -8.55026e+06 1.17831e+06 -3.50629e+06 6.07308e+06 -0.107968
45 2 15.3767 7.60948 11.575 0 -680299 -2.0409e+06 -8.55026e+06 1.17831e+06 -3.50629e+06 6.07308e+06 -0.107968
46 2 15.9258 6.65829 8.425 0 -680299 -2.0409e+06 -8.55026e+06 1.17831e+06 -3.50629e+06 6.07308e+06 -0.107968
47 2 17.0242 10.463 11.575 0 -680299 -2.0409e+06 -8.55026e+06 1.17831e+06 -3.50629e+06 6.07308e+06 -0.107968
48 2 17.5733 9.51185 8.425 0 -680299 -2.0409e+06 -8.55026e+06 1.17831e+06 -3.50629e+06 6.07308e+06 -0.107968
ITEM: TIMESTEP
8
ITEM: NUMBER OF ATOMS
48
ITEM: BOX BOUNDS xy xz yz pp pp pp
0.0000000000000000e+00 1.9770000000000000e+01 6.5899999999999999e+00
0.0000000000000000e+00 1.1414214821900000e+01 0.0000000000000000e+00
0.0000000000000000e+00 2.0000000000000000e+01 0.0000000000000000e+00
ITEM: ATOMS id type x y z c_csym c_2[1] c_2[2] c_2[3] c_2[4] c_2[5] c_2[6] c_3
1 1 5.28236e-12 -8.32651e-12 10 0 -896427 -2.68928e+06 -792222 1.55266e+06 -5091.69 8819.06 -2.44433
2 1 14.8275 2.85355 10 0 -896427 -2.68928e+06 -792222 1.55266e+06 -5091.69 8819.06 -2.44433
3 1 3.295 5.70711 10 0 -896427 -2.68928e+06 -792222 1.55266e+06 -5091.69 8819.06 -2.44433
4 1 4.9425 8.56066 10 0 -896427 -2.68928e+06 -792222 1.55266e+06 -5091.69 8819.06 -2.44433
5 1 3.295 -8.32622e-12 10 0 -896427 -2.68928e+06 -792222 1.55266e+06 -5091.69 8819.06 -2.44433
6 1 4.9425 2.85355 10 0 -896427 -2.68928e+06 -792222 1.55266e+06 -5091.69 8819.06 -2.44433
7 1 6.59 5.70711 10 0 -896427 -2.68928e+06 -792222 1.55266e+06 -5091.69 8819.06 -2.44433
8 1 8.2375 8.56066 10 0 -896427 -2.68928e+06 -792222 1.55266e+06 -5091.69 8819.06 -2.44433
9 1 6.59 -8.32598e-12 10 0 -896427 -2.68928e+06 -792222 1.55266e+06 -5091.69 8819.06 -2.44433
10 1 8.2375 2.85355 10 0 -896427 -2.68928e+06 -792222 1.55266e+06 -5091.69 8819.06 -2.44433
11 1 9.885 5.70711 10 0 -896427 -2.68928e+06 -792222 1.55266e+06 -5091.69 8819.06 -2.44433
12 1 11.5325 8.56066 10 0 -896427 -2.68928e+06 -792222 1.55266e+06 -5091.69 8819.06 -2.44433
13 1 9.885 -8.33733e-12 10 0 -896427 -2.68928e+06 -792222 1.55266e+06 -5091.69 8819.06 -2.44433
14 1 11.5325 2.85355 10 0 -896427 -2.68928e+06 -792222 1.55266e+06 -5091.69 8819.06 -2.44433
15 1 13.18 5.70711 10 0 -896427 -2.68928e+06 -792222 1.55266e+06 -5091.69 8819.06 -2.44433
16 1 14.8275 8.56066 10 0 -896427 -2.68928e+06 -792222 1.55266e+06 -5091.69 8819.06 -2.44433
17 2 2.47101 1.42719 11.8419 0 -851918 -2.55575e+06 410962 1.47557e+06 -2542.15 4403.14 -1.12041
18 2 2.47149 1.42636 8.15807 0 -851918 -2.55575e+06 410962 1.47557e+06 -2542.15 4403.14 -1.12041
19 2 4.11851 4.28074 11.8419 0 -851918 -2.55575e+06 410962 1.47557e+06 -2542.15 4403.14 -1.12041
20 2 4.11899 4.27992 8.15807 0 -851918 -2.55575e+06 410962 1.47557e+06 -2542.15 4403.14 -1.12041
21 2 5.76601 7.1343 11.8419 0 -851918 -2.55575e+06 410962 1.47557e+06 -2542.15 4403.14 -1.12041
22 2 5.76649 7.13347 8.15807 0 -851918 -2.55575e+06 410962 1.47557e+06 -2542.15 4403.14 -1.12041
23 2 7.41351 9.98785 11.8419 0 -851918 -2.55575e+06 410962 1.47557e+06 -2542.15 4403.14 -1.12041
24 2 7.41399 9.98703 8.15807 0 -851918 -2.55575e+06 410962 1.47557e+06 -2542.15 4403.14 -1.12041
25 2 5.76601 1.42719 11.8419 0 -851918 -2.55575e+06 410962 1.47557e+06 -2542.15 4403.14 -1.12041
26 2 5.76649 1.42636 8.15807 0 -851918 -2.55575e+06 410962 1.47557e+06 -2542.15 4403.14 -1.12041
27 2 7.41351 4.28074 11.8419 0 -851918 -2.55575e+06 410962 1.47557e+06 -2542.15 4403.14 -1.12041
28 2 7.41399 4.27992 8.15807 0 -851918 -2.55575e+06 410962 1.47557e+06 -2542.15 4403.14 -1.12041
29 2 9.06101 7.1343 11.8419 0 -851918 -2.55575e+06 410962 1.47557e+06 -2542.15 4403.14 -1.12041
30 2 9.06149 7.13347 8.15807 0 -851918 -2.55575e+06 410962 1.47557e+06 -2542.15 4403.14 -1.12041
31 2 10.7085 9.98785 11.8419 0 -851918 -2.55575e+06 410962 1.47557e+06 -2542.15 4403.14 -1.12041
32 2 10.709 9.98703 8.15807 0 -851918 -2.55575e+06 410962 1.47557e+06 -2542.15 4403.14 -1.12041
33 2 9.06101 1.42719 11.8419 0 -851918 -2.55575e+06 410962 1.47557e+06 -2542.15 4403.14 -1.12041
34 2 9.06149 1.42636 8.15807 0 -851918 -2.55575e+06 410962 1.47557e+06 -2542.15 4403.14 -1.12041
35 2 10.7085 4.28074 11.8419 0 -851918 -2.55575e+06 410962 1.47557e+06 -2542.15 4403.14 -1.12041
36 2 10.709 4.27992 8.15807 0 -851918 -2.55575e+06 410962 1.47557e+06 -2542.15 4403.14 -1.12041
37 2 12.356 7.1343 11.8419 0 -851918 -2.55575e+06 410962 1.47557e+06 -2542.15 4403.14 -1.12041
38 2 12.3565 7.13347 8.15807 0 -851918 -2.55575e+06 410962 1.47557e+06 -2542.15 4403.14 -1.12041
39 2 14.0035 9.98785 11.8419 0 -851918 -2.55575e+06 410962 1.47557e+06 -2542.15 4403.14 -1.12041
40 2 14.004 9.98703 8.15807 0 -851918 -2.55575e+06 410962 1.47557e+06 -2542.15 4403.14 -1.12041
41 2 12.356 1.42719 11.8419 0 -851918 -2.55575e+06 410962 1.47557e+06 -2542.15 4403.14 -1.12041
42 2 12.3565 1.42636 8.15807 0 -851918 -2.55575e+06 410962 1.47557e+06 -2542.15 4403.14 -1.12041
43 2 14.0035 4.28074 11.8419 0 -851918 -2.55575e+06 410962 1.47557e+06 -2542.15 4403.14 -1.12041
44 2 14.004 4.27992 8.15807 0 -851918 -2.55575e+06 410962 1.47557e+06 -2542.15 4403.14 -1.12041
45 2 15.651 7.1343 11.8419 0 -851918 -2.55575e+06 410962 1.47557e+06 -2542.15 4403.14 -1.12041
46 2 15.6515 7.13347 8.15807 0 -851918 -2.55575e+06 410962 1.47557e+06 -2542.15 4403.14 -1.12041
47 2 17.2985 9.98785 11.8419 0 -851918 -2.55575e+06 410962 1.47557e+06 -2542.15 4403.14 -1.12041
48 2 17.299 9.98703 8.15807 0 -851918 -2.55575e+06 410962 1.47557e+06 -2542.15 4403.14 -1.12041
