# LAMMPS data file written by OVITO Basic 3.11.1

48 atoms
2 atom types

0.0 13.18 xlo xhi
0.0 11.4142148219 ylo yhi
0.0 20.0 zlo zhi
6.59 0.0 0.0 xy xz yz

Masses

1 183.84  # W
2 78.96  # Se

Atoms  # full

1 1 1 0.0 0.0 0.0 10.0
2 1 1 0.0 1.6475 2.8535537055 10.0
3 1 1 0.0 3.295 5.7071074109 10.0
4 1 1 0.0 4.9425 8.5606611164 10.0
5 1 1 0.0 3.295 0.0 10.0
6 1 1 0.0 4.9425 2.8535537055 10.0
7 1 1 0.0 6.59 5.7071074109 10.0
8 1 1 0.0 8.2375 8.5606611164 10.0
9 1 1 0.0 6.59 0.0 10.0
10 1 1 0.0 8.2375 2.8535537055 10.0
11 1 1 0.0 9.885 5.7071074109 10.0
12 1 1 0.0 11.5325 8.5606611164 10.0
13 1 1 0.0 9.885 0.0 10.0
14 1 1 0.0 11.5325 2.8535537055 10.0
15 1 1 0.0 13.18 5.7071074109 10.0
16 1 1 0.0 14.8275 8.5606611164 10.0
17 1 2 0.0 2.1966666667 1.902369137 11.575
18 1 2 0.0 2.7458333333 0.9511845685 8.425
19 1 2 0.0 3.8441666667 4.7559228424 11.575
20 1 2 0.0 4.3933333333 3.804738274 8.425
21 1 2 0.0 5.4916666667 7.6094765479 11.575
22 1 2 0.0 6.0408333333 6.6582919794 8.425
23 1 2 0.0 7.1391666667 10.4630302534 11.575
24 1 2 0.0 7.6883333333 9.5118456849 8.425
25 1 2 0.0 5.4916666667 1.902369137 11.575
26 1 2 0.0 6.0408333333 0.9511845685 8.425
27 1 2 0.0 7.1391666667 4.7559228424 11.575
28 1 2 0.0 7.6883333333 3.804738274 8.425
29 1 2 0.0 8.7866666667 7.6094765479 11.575
30 1 2 0.0 9.3358333333 6.6582919794 8.425
31 1 2 0.0 10.4341666667 10.4630302534 11.575
32 1 2 0.0 10.9833333333 9.5118456849 8.425
33 1 2 0.0 8.7866666667 1.902369137 11.575
34 1 2 0.0 9.3358333333 0.9511845685 8.425
35 1 2 0.0 10.4341666667 4.7559228424 11.575
36 1 2 0.0 10.9833333333 3.804738274 8.425
37 1 2 0.0 12.0816666667 7.6094765479 11.575
38 1 2 0.0 12.6308333333 6.6582919794 8.425
39 1 2 0.0 13.7291666667 10.4630302534 11.575
40 1 2 0.0 14.2783333333 9.5118456849 8.425
41 1 2 0.0 12.0816666667 1.902369137 11.575
42 1 2 0.0 12.6308333333 0.9511845685 8.425
43 1 2 0.0 13.7291666667 4.7559228424 11.575
44 1 2 0.0 14.2783333333 3.804738274 8.425
45 1 2 0.0 15.3766666667 7.6094765479 11.575
46 1 2 0.0 15.9258333333 6.6582919794 8.425
47 1 2 0.0 17.0241666667 10.4630302534 11.575
48 1 2 0.0 17.5733333333 9.5118456849 8.425
