 running on   40 total cores
 distrk:  each k-point on   40 cores,    1 groups
 distr:  one band on    1 cores,   40 groups
 using from now: INCAR     
 vasp.5.4.4.18Apr17-6-g9f103f2a35 (build Jun 15 2022 16:00:52) complex          
  
 POSCAR found type information on POSCAR  Li Co O 
 POSCAR found :  3 types and      12 ions
 scaLAPACK will be used

 ----------------------------------------------------------------------------- 
|                                                                             |
|           W    W    AA    RRRRR   N    N  II  N    N   GGGG   !!!           |
|           W    W   A  A   R    R  NN   N  II  NN   N  G    G  !!!           |
|           W    W  A    A  R    R  N N  N  II  N N  N  G       !!!           |
|           W WW W  AAAAAA  RRRRR   N  N N  II  N  N N  G  GGG   !            |
|           WW  WW  A    A  R   R   N   NN  II  N   NN  G    G                |
|           W    W  A    A  R    R  N    N  II  N    N   GGGG   !!!           |
|                                                                             |
|      For optimal performance we recommend to set                            |
|        NCORE= 4 - approx SQRT( number of cores)                             |
|      NCORE specifies how many cores store one orbital (NPAR=cpu/NCORE).     |
|      This setting can  greatly improve the performance of VASP for DFT.     |
|      The default,   NCORE=1            might be grossly inefficient         |
|      on modern multi-core architectures or massively parallel machines.     |
|      Do your own testing !!!!                                               |
|      Unfortunately you need to use the default for GW and RPA calculations. |
|      (for HF NCORE is supported but not extensively tested yet)             |
|                                                                             |
 ----------------------------------------------------------------------------- 

 LDA part: xc-table for Pade appr. of Perdew
 POSCAR found type information on POSCAR  Li Co O 
 POSCAR found :  3 types and      12 ions
 POSCAR, INCAR and KPOINTS ok, starting setup
 FFT: planning ...
 WAVECAR not read
 entering main loop
       N       E                     dE             d eps       ncg     rms          rms(c)
DAV:   1     0.330449219833E+03    0.33045E+03   -0.34728E+04  3840   0.108E+03
DAV:   2    -0.631176470210E+02   -0.39357E+03   -0.35783E+03  4600   0.233E+02
DAV:   3    -0.831940536558E+02   -0.20076E+02   -0.19845E+02  6520   0.508E+01
DAV:   4    -0.833261781095E+02   -0.13212E+00   -0.13210E+00  4640   0.401E+00
DAV:   5    -0.833273480652E+02   -0.11700E-02   -0.11704E-02  5360   0.361E-01    0.425E+01
RMM:   6    -0.100846337437E+03   -0.17519E+02   -0.99595E+01  3919   0.406E+01    0.819E+01
RMM:   7    -0.621251675397E+02    0.38721E+02   -0.18306E+01  3900   0.157E+01    0.170E+01
RMM:   8    -0.624488182188E+02   -0.32365E+00   -0.14959E+00  3847   0.399E+00    0.136E+01
RMM:   9    -0.635192974355E+02   -0.10705E+01   -0.12016E+00  3857   0.371E+00    0.241E+01
RMM:  10    -0.631514902211E+02    0.36781E+00   -0.10922E+00  3850   0.375E+00    0.768E+00
RMM:  11    -0.634477660811E+02   -0.29628E+00   -0.14636E-01  3887   0.173E+00    0.620E+00
RMM:  12    -0.638540972207E+02   -0.40633E+00   -0.95759E-02  3892   0.118E+00    0.807E+00
RMM:  13    -0.639881889417E+02   -0.13409E+00   -0.64758E-02  3885   0.892E-01    0.672E+00
RMM:  14    -0.641219036880E+02   -0.13371E+00   -0.21839E-02  3889   0.587E-01    0.541E+00
RMM:  15    -0.641260589148E+02   -0.41552E-02   -0.38536E-02  3799   0.797E-01    0.312E+00
RMM:  16    -0.641625682926E+02   -0.36509E-01   -0.36788E-02  3796   0.837E-01    0.103E+00
RMM:  17    -0.641780506230E+02   -0.15482E-01   -0.94757E-03  3796   0.431E-01    0.351E-01
RMM:  18    -0.641784878720E+02   -0.43725E-03   -0.10222E-03  3770   0.143E-01    0.227E-01
RMM:  19    -0.641780467826E+02    0.44109E-03   -0.34512E-04  3502   0.809E-02    0.174E-01
RMM:  20    -0.641781337231E+02   -0.86941E-04   -0.62918E-05  2817   0.366E-02
   1 F= -.64178134E+02 E0= -.64178134E+02  d E =-.641781E+02  mag=     6.0136
 curvature:   0.00 expect dE= 0.000E+00 dE for cont linesearch  0.000E+00
 trial: gam= 0.00000 g(F)=  0.332E+01 g(S)=  0.443E+00 ort = 0.000E+00 (trialstep = 0.100E+01)
 search vector abs. value=  0.376E+01
 bond charge predicted
       N       E                     dE             d eps       ncg     rms          rms(c)
DAV:   1    -0.663617376413E+02   -0.21837E+01   -0.76326E+02  3840   0.949E+01    0.113E+01
RMM:   2    -0.670512443692E+02   -0.68951E+00   -0.17192E+01  3900   0.144E+01    0.645E+00
RMM:   3    -0.667060210024E+02    0.34522E+00   -0.44086E-01  4049   0.286E+00    0.294E+00
RMM:   4    -0.666518407939E+02    0.54180E-01   -0.12178E-01  4240   0.127E+00    0.107E+00
RMM:   5    -0.666453692867E+02    0.64715E-02   -0.25075E-02  4255   0.652E-01    0.742E-01
RMM:   6    -0.666443858101E+02    0.98348E-03   -0.50577E-03  4338   0.243E-01    0.275E-01
RMM:   7    -0.666442764373E+02    0.10937E-03   -0.13363E-03  4242   0.135E-01    0.170E-01
RMM:   8    -0.666442716337E+02    0.48035E-05   -0.35737E-04  3811   0.630E-02
   2 F= -.66644272E+02 E0= -.66644272E+02  d E =-.246614E+01  mag=     6.0003
 trial-energy change:   -2.466138  1 .order   -2.517952   -3.764884   -1.271019
 step:   1.6407(harm=  1.5097)  dis= 0.26812  next Energy=   -67.037814 (dE=-0.286E+01)
 bond charge predicted
       N       E                     dE             d eps       ncg     rms          rms(c)
DAV:   1    -0.668902015750E+02   -0.24593E+00   -0.32479E+02  4560   0.607E+01    0.655E+00
RMM:   2    -0.671615201657E+02   -0.27132E+00   -0.69403E+00  3916   0.901E+00    0.353E+00
RMM:   3    -0.670136295500E+02    0.14789E+00   -0.18559E-01  4053   0.187E+00    0.184E+00
RMM:   4    -0.669961020559E+02    0.17527E-01   -0.40310E-02  4300   0.749E-01    0.723E-01
RMM:   5    -0.669932528528E+02    0.28492E-02   -0.99764E-03  4314   0.394E-01    0.424E-01
RMM:   6    -0.669931904480E+02    0.62405E-04   -0.18571E-03  4323   0.147E-01    0.145E-01
RMM:   7    -0.669931931876E+02   -0.27396E-05   -0.44875E-04  3917   0.759E-02
   3 F= -.66993193E+02 E0= -.66993193E+02  d E =-.281506E+01  mag=     6.0000
 curvature:  -0.70 expect dE=-0.102E+00 dE for cont linesearch -0.620E-02
 ZBRENT: interpolating
 opt :   1.5605  next Energy=   -67.000495 (dE=-0.282E+01)
 bond charge predicted
       N       E                     dE             d eps       ncg     rms          rms(c)
DAV:   1    -0.670011001482E+02   -0.79097E-02   -0.51855E+00  5000   0.748E+00    0.797E-01
RMM:   2    -0.670031087000E+02   -0.20086E-02   -0.89993E-02  3990   0.107E+00    0.420E-01
RMM:   3    -0.670014852166E+02    0.16235E-02   -0.29195E-03  4009   0.229E-01    0.243E-01
RMM:   4    -0.670012054577E+02    0.27976E-03   -0.58730E-04  3921   0.952E-02    0.953E-02
RMM:   5    -0.670011769205E+02    0.28537E-04   -0.19536E-04  3325   0.603E-02
   4 F= -.67001177E+02 E0= -.67001177E+02  d E =-.282304E+01  mag=     6.0000
 curvature:  -0.83 expect dE=-0.833E-01 dE for cont linesearch -0.156E-03
 trial: gam= 0.03373 g(F)=  0.137E-02 g(S)=  0.990E-01 ort =-0.266E-01 (trialstep = 0.111E+01)
 search vector abs. value=  0.103E+00
 bond charge predicted
       N       E                     dE             d eps       ncg     rms          rms(c)
DAV:   1    -0.674037813482E+02   -0.40258E+00   -0.11499E+01  4760   0.161E+01    0.427E+00
RMM:   2    -0.671573492756E+02    0.24643E+00   -0.76306E-01  3881   0.370E+00    0.349E+00
RMM:   3    -0.671100828225E+02    0.47266E-01   -0.89653E-02  4026   0.107E+00    0.137E+00
RMM:   4    -0.670912108692E+02    0.18872E-01   -0.11714E-02  4187   0.371E-01    0.515E-01
RMM:   5    -0.670882229110E+02    0.29880E-02   -0.38646E-03  4080   0.264E-01    0.197E-01
RMM:   6    -0.670885172399E+02   -0.29433E-03   -0.48276E-04  3940   0.911E-02    0.111E-01
RMM:   7    -0.670885452304E+02   -0.27990E-04   -0.10770E-04  3067   0.409E-02
   5 F= -.67088545E+02 E0= -.67088545E+02  d E =-.873683E-01  mag=     6.0000
 trial-energy change:   -0.087368  1 .order   -0.082721   -0.110666   -0.054777
 step:   1.7263(harm=  2.2020)  dis= 0.01525  next Energy=   -67.104456 (dE=-0.103E+00)
 bond charge predicted
       N       E                     dE             d eps       ncg     rms          rms(c)
DAV:   1    -0.672050835949E+02   -0.11657E+00   -0.34286E+00  5240   0.872E+00    0.232E+00
RMM:   2    -0.671315004800E+02    0.73583E-01   -0.22986E-01  3892   0.201E+00    0.186E+00
RMM:   3    -0.671179515550E+02    0.13549E-01   -0.26993E-02  4040   0.588E-01    0.753E-01
RMM:   4    -0.671123365349E+02    0.56150E-02   -0.34850E-03  4154   0.202E-01    0.276E-01
RMM:   5    -0.671114421101E+02    0.89442E-03   -0.11601E-03  4013   0.144E-01    0.107E-01
RMM:   6    -0.671115207753E+02   -0.78665E-04   -0.13498E-04  3158   0.519E-02
   6 F= -.67111521E+02 E0= -.67111521E+02  d E =-.110344E+00  mag=     6.0000
 curvature:  -0.92 expect dE=-0.195E-01 dE for cont linesearch -0.722E-02
 ZBRENT: increasing intervall
 opt :   2.9548  next Energy=   -67.120745 (dE=-0.120E+00)
 bond charge predicted
       N       E                     dE             d eps       ncg     rms          rms(c)
DAV:   1    -0.674716356530E+02   -0.36019E+00   -0.13401E+01  4960   0.172E+01    0.458E+00
RMM:   2    -0.671860927845E+02    0.28554E+00   -0.90835E-01  3890   0.401E+00    0.375E+00
RMM:   3    -0.671307916386E+02    0.55301E-01   -0.10516E-01  4032   0.116E+00    0.145E+00
RMM:   4    -0.671092266846E+02    0.21565E-01   -0.13286E-02  4206   0.397E-01    0.559E-01
RMM:   5    -0.671056772859E+02    0.35494E-02   -0.48896E-03  4086   0.300E-01    0.218E-01
RMM:   6    -0.671060058292E+02   -0.32854E-03   -0.57759E-04  4011   0.966E-02    0.124E-01
RMM:   7    -0.671060452255E+02   -0.39396E-04   -0.14063E-04  3171   0.463E-02
   7 F= -.67106045E+02 E0= -.67106045E+02  d E =-.104868E+00  mag=     6.0000
 curvature:  -1.18 expect dE=-0.906E-01 dE for cont linesearch -0.154E-01
 ZBRENT: bracketing found
 ZBRENT: interpolating
 opt :   2.2622  next Energy=   -67.119125 (dE=-0.118E+00)
 bond charge predicted
       N       E                     dE             d eps       ncg     rms          rms(c)
DAV:   1    -0.672320765422E+02   -0.12607E+00   -0.42026E+00  5000   0.949E+00    0.254E+00
RMM:   2    -0.671397986277E+02    0.92278E-01   -0.27885E-01  3904   0.218E+00    0.197E+00
RMM:   3    -0.671254037488E+02    0.14395E-01   -0.32826E-02  4060   0.647E-01    0.863E-01
RMM:   4    -0.671183933795E+02    0.70104E-02   -0.40893E-03  4161   0.222E-01    0.307E-01
RMM:   5    -0.671173162361E+02    0.10771E-02   -0.14454E-03  4010   0.159E-01    0.113E-01
RMM:   6    -0.671174293199E+02   -0.11308E-03   -0.16083E-04  3201   0.560E-02    0.713E-02
RMM:   7    -0.671174430817E+02   -0.13762E-04   -0.56457E-05  2791   0.303E-02
   8 F= -.67117443E+02 E0= -.67117443E+02  d E =-.116266E+00  mag=     6.0000
 curvature:  -0.58 expect dE=-0.160E-01 dE for cont linesearch -0.141E-04
 trial: gam= 0.26587 g(F)=  0.375E-02 g(S)=  0.238E-01 ort = 0.158E-02 (trialstep = 0.134E+01)
 search vector abs. value=  0.357E-01
 bond charge predicted
       N       E                     dE             d eps       ncg     rms          rms(c)
DAV:   1    -0.672138994317E+02   -0.96470E-01   -0.72386E+00  4600   0.108E+01    0.273E+00
RMM:   2    -0.671462236344E+02    0.67676E-01   -0.21147E-01  3928   0.182E+00    0.152E+00
RMM:   3    -0.671336387727E+02    0.12585E-01   -0.28449E-02  4077   0.609E-01    0.832E-01
RMM:   4    -0.671304392982E+02    0.31995E-02   -0.64287E-03  4104   0.344E-01    0.418E-01
RMM:   5    -0.671294824100E+02    0.95689E-03   -0.14583E-03  3976   0.162E-01    0.164E-01
RMM:   6    -0.671295231821E+02   -0.40772E-04   -0.13634E-04  3022   0.489E-02
   9 F= -.67129523E+02 E0= -.67129523E+02  d E =-.120801E-01  mag=     6.0000
 trial-energy change:   -0.012080  1 .order   -0.011447   -0.037558    0.014664
 step:   0.9843(harm=  0.9653)  dis= 0.00771  next Energy=   -67.131466 (dE=-0.140E-01)
 bond charge predicted
       N       E                     dE             d eps       ncg     rms          rms(c)
DAV:   1    -0.671380125903E+02   -0.85302E-02   -0.51533E-01  4880   0.292E+00    0.732E-01
RMM:   2    -0.671330466381E+02    0.49660E-02   -0.15626E-02  3921   0.504E-01    0.422E-01
RMM:   3    -0.671321591029E+02    0.88754E-03   -0.20256E-03  4031   0.162E-01    0.240E-01
RMM:   4    -0.671318798609E+02    0.27924E-03   -0.48020E-04  3776   0.975E-02    0.119E-01
RMM:   5    -0.671318012980E+02    0.78563E-04   -0.10376E-04  2838   0.481E-02
  10 F= -.67131801E+02 E0= -.67131801E+02  d E =-.143582E-01  mag=     6.0000
 curvature:  -0.61 expect dE=-0.661E-03 dE for cont linesearch -0.586E-04
 trial: gam= 0.11397 g(F)=  0.921E-03 g(S)=  0.156E-03 ort =-0.185E-02 (trialstep = 0.127E+01)
 search vector abs. value=  0.112E-02
 bond charge predicted
       N       E                     dE             d eps       ncg     rms          rms(c)
DAV:   1    -0.671330437124E+02   -0.11639E-02   -0.21932E-01  4960   0.163E+00    0.264E-01
RMM:   2    -0.671327329684E+02    0.31074E-03   -0.27776E-03  3997   0.191E-01    0.159E-01
RMM:   3    -0.671325867127E+02    0.14626E-03   -0.37744E-04  3505   0.875E-02    0.135E-01
RMM:   4    -0.671324667515E+02    0.11996E-03   -0.83313E-05  2766   0.388E-02    0.353E-02
RMM:   5    -0.671324705741E+02   -0.38227E-05   -0.12006E-05  2300   0.152E-02
  11 F= -.67132471E+02 E0= -.67132471E+02  d E =-.669276E-03  mag=     6.0000
 trial-energy change:   -0.000669  1 .order   -0.000579   -0.001101   -0.000058
 step:   1.3411(harm=  1.3411)  dis= 0.00245  next Energy=   -67.132382 (dE=-0.581E-03)
 bond charge predicted
       N       E                     dE             d eps       ncg     rms          rms(c)
DAV:   1    -0.671324721689E+02   -0.54174E-05   -0.66601E-04  5240   0.902E-02    0.161E-02
RMM:   2    -0.671324733600E+02   -0.11911E-05   -0.80338E-06  1922   0.116E-02
  12 F= -.67132473E+02 E0= -.67132473E+02  d E =-.672062E-03  mag=     6.0000
 curvature:  -0.87 expect dE=-0.150E-03 dE for cont linesearch -0.230E-05
 trial: gam= 0.04089 g(F)=  0.663E-04 g(S)=  0.107E-03 ort = 0.546E-04 (trialstep = 0.128E+01)
 search vector abs. value=  0.180E-03
 reached required accuracy - stopping structural energy minimisation
