 vasp.5.4.4.18Apr17-6-g9f103f2a35 (build Jun 15 2022 16:00:52) complex          
  
 executed on             LinuxIFC date 2025.09.11  18:41:08
 running on   40 total cores
 distrk:  each k-point on   40 cores,    1 groups
 distr:  one band on NCORES_PER_BAND=   1 cores,   40 groups


--------------------------------------------------------------------------------------------------------


 INCAR:
 POTCAR:    PAW_PBE Li_sv 10Sep2004               
 POTCAR:    PAW_PBE Co 02Aug2007                  
 POTCAR:    PAW_PBE O 08Apr2002                   

 ----------------------------------------------------------------------------- 
|                                                                             |
|           W    W    AA    RRRRR   N    N  II  N    N   GGGG   !!!           |
|           W    W   A  A   R    R  NN   N  II  NN   N  G    G  !!!           |
|           W    W  A    A  R    R  N N  N  II  N N  N  G       !!!           |
|           W WW W  AAAAAA  RRRRR   N  N N  II  N  N N  G  GGG   !            |
|           WW  WW  A    A  R   R   N   NN  II  N   NN  G    G                |
|           W    W  A    A  R    R  N    N  II  N    N   GGGG   !!!           |
|                                                                             |
|      For optimal performance we recommend to set                            |
|        NCORE= 4 - approx SQRT( number of cores)                             |
|      NCORE specifies how many cores store one orbital (NPAR=cpu/NCORE).     |
|      This setting can  greatly improve the performance of VASP for DFT.     |
|      The default,   NCORE=1            might be grossly inefficient         |
|      on modern multi-core architectures or massively parallel machines.     |
|      Do your own testing !!!!                                               |
|      Unfortunately you need to use the default for GW and RPA calculations. |
|      (for HF NCORE is supported but not extensively tested yet)             |
|                                                                             |
 ----------------------------------------------------------------------------- 

 POTCAR:    PAW_PBE Li_sv 10Sep2004               
   VRHFIN =Li: 1s2s2p                                                           
   LEXCH  = PE                                                                  
   EATOM  =   202.7858 eV,   14.9043 Ry                                         
                                                                                
   TITEL  = PAW_PBE Li_sv 10Sep2004                                             
   LULTRA =        F    use ultrasoft PP ?                                      
   IUNSCR =        0    unscreen: 0-lin 1-nonlin 2-no                           
   RPACOR =    0.000    partial core radius                                     
   POMASS =    7.010; ZVAL   =    3.000    mass and valenz                      
   RCORE  =    1.700    outmost cutoff radius                                   
   RWIGS  =    2.050; RWIGS  =    1.085    wigner-seitz radius (au A)           
   ENMAX  =  499.034; ENMIN  =  374.276 eV                                      
   ICORE  =        2    local potential                                         
   LCOR   =        T    correct aug charges                                     
   LPAW   =        T    paw PP                                                  
   EAUG   =  628.945                                                            
   RMAX   =    1.732    core radius for proj-oper                               
   RAUG   =    1.300    factor for augmentation sphere                          
   RDEP   =    1.728    radius for radial grids                                 
   RDEPT  =    1.329    core radius for aug-charge                              
                                                                                
   Atomic configuration                                                         
    4 entries                                                                   
     n  l   j            E        occ.                                          
     1  0  0.50       -51.8549   2.0000                                         
     2  0  0.50        -2.8742   1.0000                                         
     2  1  0.50        -1.3606   0.0000                                         
     3  2  1.50        -1.3606   0.0000                                         
   Description                                                                  
     l       E           TYP  RCUT    TYP  RCUT                                 
     0    -51.8548813     23  1.400                                             
     0     -2.8742052     23  1.700                                             
     1     -1.3605826     23  1.400                                             
     2     -1.3605826     23  1.400                                             
  local pseudopotential read in
  atomic valenz-charges read in
  non local Contribution for L=           0  read in
    real space projection operators read in
  non local Contribution for L=           0  read in
    real space projection operators read in
  non local Contribution for L=           1  read in
    real space projection operators read in
    PAW grid and wavefunctions read in
 
   number of l-projection  operators is LMAX  =           3
   number of lm-projection operators is LMMAX =           5
 
 POTCAR:    PAW_PBE Co 02Aug2007                  
   VRHFIN =Co: d8 s1                                                            
   LEXCH  = PE                                                                  
   EATOM  =   813.3670 eV,   59.7808 Ry                                         
                                                                                
   TITEL  = PAW_PBE Co 02Aug2007                                                
   LULTRA =        F    use ultrasoft PP ?                                      
   IUNSCR =        1    unscreen: 0-lin 1-nonlin 2-no                           
   RPACOR =    2.000    partial core radius                                     
   POMASS =   58.933; ZVAL   =    9.000    mass and valenz                      
   RCORE  =    2.300    outmost cutoff radius                                   
   RWIGS  =    2.460; RWIGS  =    1.302    wigner-seitz radius (au A)           
   ENMAX  =  267.968; ENMIN  =  200.976 eV                                      
   RCLOC  =    1.203    cutoff for local pot                                    
   LCOR   =        T    correct aug charges                                     
   LPAW   =        T    paw PP                                                  
   EAUG   =  477.818                                                            
   DEXC   =    0.000                                                            
   RMAX   =    2.360    core radius for proj-oper                               
   RAUG   =    1.300    factor for augmentation sphere                          
   RDEP   =    2.393    radius for radial grids                                 
   RDEPT  =    1.864    core radius for aug-charge                              
                                                                                
   Atomic configuration                                                         
    9 entries                                                                   
     n  l   j            E        occ.                                          
     1  0  0.50     -7587.6674   2.0000                                         
     2  0  0.50      -893.6084   2.0000                                         
     2  1  1.50      -764.5805   6.0000                                         
     3  0  0.50       -97.5973   2.0000                                         
     3  1  1.50       -60.9648   6.0000                                         
     3  2  2.50        -4.2382   8.0000                                         
     4  0  0.50        -4.3746   1.0000                                         
     4  1  1.50        -4.0817   0.0000                                         
     4  3  2.50        -1.3606   0.0000                                         
   Description                                                                  
     l       E           TYP  RCUT    TYP  RCUT                                 
     2     -4.2382362     23  2.300                                             
     2     -5.5988188     23  2.300                                             
     0     -4.3745797     23  2.300                                             
     0      5.7660125     23  2.300                                             
     1     -2.7211652     23  2.300                                             
     1     16.9860234     23  2.300                                             
  local pseudopotential read in
  partial core-charges read in
  partial kinetic energy density read in
  atomic valenz-charges read in
  non local Contribution for L=           2  read in
    real space projection operators read in
  non local Contribution for L=           2  read in
    real space projection operators read in
  non local Contribution for L=           0  read in
    real space projection operators read in
  non local Contribution for L=           0  read in
    real space projection operators read in
  non local Contribution for L=           1  read in
    real space projection operators read in
  non local Contribution for L=           1  read in
    real space projection operators read in
    PAW grid and wavefunctions read in
 
   number of l-projection  operators is LMAX  =           6
   number of lm-projection operators is LMMAX =          18
 
 POTCAR:    PAW_PBE O 08Apr2002                   
   VRHFIN =O: s2p4                                                              
   LEXCH  = PE                                                                  
   EATOM  =   432.3788 eV,   31.7789 Ry                                         
                                                                                
   TITEL  = PAW_PBE O 08Apr2002                                                 
   LULTRA =        F    use ultrasoft PP ?                                      
   IUNSCR =        1    unscreen: 0-lin 1-nonlin 2-no                           
   RPACOR =    1.200    partial core radius                                     
   POMASS =   16.000; ZVAL   =    6.000    mass and valenz                      
   RCORE  =    1.520    outmost cutoff radius                                   
   RWIGS  =    1.550; RWIGS  =    0.820    wigner-seitz radius (au A)           
   ENMAX  =  400.000; ENMIN  =  300.000 eV                                      
   ICORE  =        2    local potential                                         
   LCOR   =        T    correct aug charges                                     
   LPAW   =        T    paw PP                                                  
   EAUG   =  605.392                                                            
   DEXC   =    0.000                                                            
   RMAX   =    1.553    core radius for proj-oper                               
   RAUG   =    1.300    factor for augmentation sphere                          
   RDEP   =    1.550    radius for radial grids                                 
   RDEPT  =    1.329    core radius for aug-charge                              
                                                                                
   Atomic configuration                                                         
    4 entries                                                                   
     n  l   j            E        occ.                                          
     1  0  0.50      -514.6923   2.0000                                         
     2  0  0.50       -23.9615   2.0000                                         
     2  1  0.50        -9.0305   4.0000                                         
     3  2  1.50        -9.5241   0.0000                                         
   Description                                                                  
     l       E           TYP  RCUT    TYP  RCUT                                 
     0    -23.9615318     23  1.200                                             
     0     -9.5240782     23  1.200                                             
     1     -9.0304911     23  1.520                                             
     1      8.1634956     23  1.520                                             
     2     -9.5240782      7  1.500                                             
  local pseudopotential read in
  partial core-charges read in
  partial kinetic energy density read in
  kinetic energy density of atom read in
  atomic valenz-charges read in
  non local Contribution for L=           0  read in
    real space projection operators read in
  non local Contribution for L=           0  read in
    real space projection operators read in
  non local Contribution for L=           1  read in
    real space projection operators read in
  non local Contribution for L=           1  read in
    real space projection operators read in
    PAW grid and wavefunctions read in
 
   number of l-projection  operators is LMAX  =           4
   number of lm-projection operators is LMMAX =           8
 
 Optimization of the real space projectors (new method)

 maximal supplied QI-value         = 22.11
 optimisation between [QCUT,QGAM] = [ 11.50, 23.22] = [ 37.02,150.92] Ry 
 Optimized for a Real-space Cutoff    1.08 Angstroem

   l    n(q)    QCUT    max X(q) W(low)/X(q) W(high)/X(q)  e(spline) 
   0      7    11.497    10.506    0.36E-04    0.62E-04    0.14E-07
   0      7    11.497     8.367    0.65E-04    0.14E-03    0.28E-07
   1      7    11.497     8.983    0.21E-03    0.43E-03    0.90E-07
 Optimization of the real space projectors (new method)

 maximal supplied QI-value         = 16.25
 optimisation between [QCUT,QGAM] = [ 11.54, 23.24] = [ 37.28,151.24] Ry 
 Optimized for a Real-space Cutoff    1.45 Angstroem

   l    n(q)    QCUT    max X(q) W(low)/X(q) W(high)/X(q)  e(spline) 
   2      9    11.539    65.824    0.19E-03    0.47E-04    0.16E-06
   2      9    11.539    61.429    0.20E-03    0.48E-04    0.16E-06
   0     10    11.539    56.174    0.76E-04    0.45E-04    0.23E-06
   0     10    11.539    31.263    0.69E-04    0.41E-04    0.21E-06
   1     10    11.539    19.828    0.78E-04    0.14E-03    0.70E-07
   1     10    11.539    15.139    0.65E-04    0.12E-03    0.64E-07
 Optimization of the real space projectors (new method)

 maximal supplied QI-value         = 24.76
 optimisation between [QCUT,QGAM] = [ 11.64, 23.27] = [ 37.91,151.63] Ry 
 Optimized for a Real-space Cutoff    1.14 Angstroem

   l    n(q)    QCUT    max X(q) W(low)/X(q) W(high)/X(q)  e(spline) 
   0      8    11.635    20.381    0.10E-03    0.33E-03    0.24E-06
   0      8    11.635    15.268    0.11E-03    0.35E-03    0.26E-06
   1      7    11.635     5.964    0.24E-03    0.31E-03    0.30E-06
   1      7    11.635     5.382    0.22E-03    0.25E-03    0.26E-06
  PAW_PBE Li_sv 10Sep2004               :
 energy of atom  1       EATOM= -202.7858
 kinetic energy error for atom=    0.0130 (will be added to EATOM!!)
  PAW_PBE Co 02Aug2007                  :
 energy of atom  2       EATOM= -813.3670
 kinetic energy error for atom=    0.0028 (will be added to EATOM!!)
  PAW_PBE O 08Apr2002                   :
 energy of atom  3       EATOM= -432.3788
 kinetic energy error for atom=    0.0208 (will be added to EATOM!!)
 
 
 POSCAR: POSCAR file written by OVITO Basic 3.11.
  positions in cartesian coordinates
  No initial velocities read in
 exchange correlation table for  LEXCH =        8
   RHO(1)=    0.500       N(1)  =     2000
   RHO(2)=  100.500       N(2)  =     4000

 VTST: version 3.2, (02/03/18)

 CHAIN: initializing optimizer
 
 OPT: Using VASP Conjugate-Gradient optimizer
 CHAIN: Read ICHAIN            0
 
 POSCAR: POSCAR file written by OVITO Basic 3.11.
  positions in cartesian coordinates
  No initial velocities read in
 


--------------------------------------------------------------------------------------------------------


 ion  position               nearest neighbor table
   1  0.000  0.000  0.000-  10 1.91  11 1.91  11 1.91  10 1.91  10 1.91  11 1.91   6 2.85   5 2.85
                             6 2.85   5 2.85   5 2.85   6 2.85
   2  0.667  0.333  0.333-  12 1.91   7 1.91  12 1.91   7 1.91   7 1.91  12 1.91   4 2.85   4 2.85
                             6 2.85   6 2.85   4 2.85   6 2.85
   3  0.333  0.667  0.667-   9 1.91   8 1.91   8 1.91   9 1.91   8 1.91   9 1.91   4 2.85   4 2.85
                             5 2.85   5 2.85   4 2.85   5 2.85
   4  0.000  0.000  0.500-   9 2.10  12 2.10  12 2.10   9 2.10   9 2.10  12 2.10   3 2.85   2 2.85
                             3 2.85   2 2.85   2 2.85   3 2.85
   5  0.667  0.333  0.833-  11 2.10  11 2.10   8 2.10   8 2.10  11 2.10   8 2.10   1 2.85   1 2.85
                             3 2.85   3 2.85   1 2.85   3 2.85
   6  0.333  0.667  0.167-  10 2.10  10 2.10   7 2.10   7 2.10  10 2.10   7 2.10   1 2.85   1 2.85
                             2 2.85   2 2.85   1 2.85   2 2.85
   7  0.000  0.000  0.262-   2 1.91   2 1.91   2 1.91   6 2.10   6 2.10   6 2.10
   8  0.000  0.000  0.738-   3 1.91   3 1.91   3 1.91   5 2.10   5 2.10   5 2.10
   9  0.667  0.333  0.595-   3 1.91   3 1.91   3 1.91   4 2.10   4 2.10   4 2.10
  10  0.667  0.333  0.072-   1 1.91   1 1.91   1 1.91   6 2.10   6 2.10   6 2.10
  11  0.333  0.667  0.928-   1 1.91   1 1.91   1 1.91   5 2.10   5 2.10   5 2.10
  12  0.333  0.667  0.405-   2 1.91   2 1.91   2 1.91   4 2.10   4 2.10   4 2.10
 
  LATTYP: Found a hexagonal cell.
 ALAT       =     2.8150000000
 C/A-ratio  =     4.9918294848
  
  Lattice vectors:
  
 A1 = (   2.8150000000,   0.0000000000,   0.0000000000)
 A2 = (  -1.4075000000,   2.4378615117,   0.0000000000)
 A3 = (   0.0000000000,   0.0000000000,  14.0520000000)


Analysis of symmetry for initial positions (statically):
=====================================================================
 Subroutine PRICEL returns following result:
 
  LATTYP: Found a trigonal (rhomboedric) cell.
 ALAT       =     4.9579496098
 COS(alpha) =     0.8388157563
  
  Lattice vectors:
  
 A1 = (   1.4075000000,   0.8126205039,   4.6840000000)
 A2 = (  -1.4075000000,   0.8126205039,   4.6840000000)
 A3 = (  -0.0000000000,  -1.6252410078,   4.6840000000)
 
   3 primitive cells build up your supercell.
 

 Routine SETGRP: Setting up the symmetry group for a 
 hexagonal supercell.


 Subroutine GETGRP returns: Found 12 space group operations
 (whereof 12 operations were pure point group operations)
 out of a pool of 24 trial point group operations.


The static configuration has the point symmetry D_3d.


Analysis of symmetry for dynamics (positions and initial velocities):
=====================================================================
 Subroutine PRICEL returns following result:
 
  LATTYP: Found a trigonal (rhomboedric) cell.
 ALAT       =     4.9579496098
 COS(alpha) =     0.8388157563
  
  Lattice vectors:
  
 A1 = (   1.4075000000,   0.8126205039,   4.6840000000)
 A2 = (  -1.4075000000,   0.8126205039,   4.6840000000)
 A3 = (  -0.0000000000,  -1.6252410078,   4.6840000000)
 
   3 primitive cells build up your supercell.
 

 Routine SETGRP: Setting up the symmetry group for a 
 hexagonal supercell.


 Subroutine GETGRP returns: Found 12 space group operations
 (whereof 12 operations were pure point group operations)
 out of a pool of 24 trial point group operations.


The dynamic configuration has the point symmetry D_3d.


Analysis of structural, dynamic, and magnetic symmetry:
=====================================================================
 Subroutine PRICEL returns following result:
 
  LATTYP: Found a trigonal (rhomboedric) cell.
 ALAT       =     4.9579496098
 COS(alpha) =     0.8388157563
  
  Lattice vectors:
  
 A1 = (   1.4075000000,   0.8126205039,   4.6840000000)
 A2 = (  -1.4075000000,   0.8126205039,   4.6840000000)
 A3 = (  -0.0000000000,  -1.6252410078,   4.6840000000)
 
   3 primitive cells build up your supercell.
 

 Routine SETGRP: Setting up the symmetry group for a 
 hexagonal supercell.


 Subroutine GETGRP returns: Found 12 space group operations
 (whereof 12 operations were pure point group operations)
 out of a pool of 24 trial point group operations.


The magnetic configuration has the point symmetry D_3d.


 Subroutine INISYM returns: Found 12 space group operations
 (whereof 12 operations are pure point group operations),
 and found     3 'primitive' translations

 
 
 KPOINTS: pymatgen with grid density = 2001 / numb

Automatic generation of k-mesh.
Space group operators:
 irot       det(A)        alpha          n_x          n_y          n_z        tau_x        tau_y        tau_z
    1     1.000000     0.000000     1.000000     0.000000     0.000000     0.000000     0.000000     0.000000
    2    -1.000000     0.000000     1.000000     0.000000     0.000000     0.000000     0.000000     0.000000
    3     1.000000   120.000000     0.000000     0.000000    -1.000000     0.000000     0.000000     0.000000
    4    -1.000000   120.000000     0.000000     0.000000    -1.000000     0.000000     0.000000     0.000000
    5     1.000000   120.000000     0.000000     0.000000     1.000000     0.000000     0.000000     0.000000
    6    -1.000000   120.000000     0.000000     0.000000     1.000000     0.000000     0.000000     0.000000
    7     1.000000   180.000000     1.000000     0.000000     0.000000     0.000000     0.000000     0.000000
    8    -1.000000   180.000000     1.000000     0.000000     0.000000     0.000000     0.000000     0.000000
    9     1.000000   180.000000     0.500000    -0.866025     0.000000     0.000000     0.000000     0.000000
   10    -1.000000   180.000000     0.500000    -0.866025     0.000000     0.000000     0.000000     0.000000
   11     1.000000   180.000000    -0.500000    -0.866025     0.000000     0.000000     0.000000     0.000000
   12    -1.000000   180.000000    -0.500000    -0.866025     0.000000     0.000000     0.000000     0.000000
 
 Subroutine IBZKPT returns following result:
 ===========================================
 
 Found     12 irreducible k-points:
 
 Following reciprocal coordinates:
            Coordinates               Weight
  0.000000  0.000000  0.000000      1.000000
  0.111111 -0.000000  0.000000      6.000000
  0.222222 -0.000000  0.000000      6.000000
  0.333333  0.000000  0.000000      6.000000
  0.444444 -0.000000  0.000000      6.000000
  0.111111  0.111111  0.000000      6.000000
  0.222222  0.111111  0.000000     12.000000
  0.333333  0.111111  0.000000     12.000000
  0.444444  0.111111  0.000000      6.000000
  0.222222  0.222222  0.000000      6.000000
  0.333333  0.222222  0.000000     12.000000
  0.333333  0.333333  0.000000      2.000000
 
 Following cartesian coordinates:
            Coordinates               Weight
  0.000000  0.000000  0.000000      1.000000
  0.039471  0.022789  0.000000      6.000000
  0.078942  0.045577  0.000000      6.000000
  0.118413  0.068366  0.000000      6.000000
  0.157884  0.091155  0.000000      6.000000
  0.039471  0.068366  0.000000      6.000000
  0.078942  0.091155  0.000000     12.000000
  0.118413  0.113943  0.000000     12.000000
  0.157884  0.136732  0.000000      6.000000
  0.078942  0.136732  0.000000      6.000000
  0.118413  0.159521  0.000000     12.000000
  0.118413  0.205098  0.000000      2.000000
 
 TETIRR: Found     43 inequivalent tetrahedra from      486


--------------------------------------------------------------------------------------------------------




 Dimension of arrays:
   k-points           NKPTS =     12   k-points in BZ     NKDIM =     12   number of bands    NBANDS=     80
   number of dos      NEDOS =    301   number of ions     NIONS =     12
   non local maximal  LDIM  =      6   non local SUM 2l+1 LMDIM =     18
   total plane-waves  NPLWV =  62208
   max r-space proj   IRMAX =   8215   max aug-charges    IRDMAX=  25638
   dimension x,y,z NGX =    24 NGY =   24 NGZ =  108
   dimension x,y,z NGXF=    48 NGYF=   48 NGZF=  216
   support grid    NGXF=    48 NGYF=   48 NGZF=  216
   ions per type =               3   3   6
   NGX,Y,Z   is equivalent  to a cutoff of  14.17, 14.17, 12.78 a.u.
   NGXF,Y,Z  is equivalent  to a cutoff of  28.35, 28.35, 25.55 a.u.

 SYSTEM =  unknown system                          
 POSCAR =  POSCAR file written by OVITO Basic 3.11.

 Startparameter for this run:
   NWRITE =      2    write-flag & timer
   PREC   = accura    normal or accurate (medium, high low for compatibility)
   ISTART =      0    job   : 0-new  1-cont  2-samecut
   ICHARG =      2    charge: 1-file 2-atom 10-const
   ISPIN  =      2    spin polarized calculation?
   LNONCOLLINEAR =      F non collinear calculations
   LSORBIT =      F    spin-orbit coupling
   INIWAV =      1    electr: 0-lowe 1-rand  2-diag
   LASPH  =      T    aspherical Exc in radial PAW
   METAGGA=      F    non-selfconsistent MetaGGA calc.

 Electronic Relaxation 1
   ENCUT  =  520.0 eV  38.22 Ry    6.18 a.u.   5.23  5.23 26.13*2*pi/ulx,y,z
   ENINI  =  520.0     initial cutoff
   ENAUG  =  628.9 eV  augmentation charge cutoff
   NELM   =    100;   NELMIN=  2; NELMDL= -5     # of ELM steps 
   EDIFF  = 0.1E-03   stopping-criterion for ELM
   LREAL  =      T    real-space projection
   NLSPLINE    = F    spline interpolate recip. space projectors
   LCOMPAT=      F    compatible to vasp.4.4
   GGA_COMPAT  = T    GGA compatible to vasp.4.4-vasp.4.6
   LMAXPAW     = -100 max onsite density
   LMAXMIX     =    4 max onsite mixed and CHGCAR
   VOSKOWN=      0    Vosko Wilk Nusair interpolation
   ROPT   =   -0.00025  -0.00025  -0.00025
 Ionic relaxation
   EDIFFG = 0.1E-02   stopping-criterion for IOM
   NSW    =     99    number of steps for IOM
   NBLOCK =      1;   KBLOCK =     99    inner block; outer block 
   IBRION =      2    ionic relax: 0-MD 1-quasi-New 2-CG
   NFREE  =      1    steps in history (QN), initial steepest desc. (CG)
   ISIF   =      3    stress and relaxation
   IWAVPR =     11    prediction:  0-non 1-charg 2-wave 3-comb
   ISYM   =      2    0-nonsym 1-usesym 2-fastsym
   LCORR  =      T    Harris-Foulkes like correction to forces

   POTIM  = 0.5000    time-step for ionic-motion
   TEIN   =    0.0    initial temperature
   TEBEG  =    0.0;   TEEND  =   0.0 temperature during run
   SMASS  =  -3.00    Nose mass-parameter (am)
   estimated Nose-frequenzy (Omega)   =  0.10E-29 period in steps =****** mass=  -0.181E-27a.u.
   SCALEE = 1.0000    scale energy and forces
   NPACO  =    256;   APACO  = 16.0  distance and # of slots for P.C.
   PSTRESS=    0.0 pullay stress

  Mass of Ions in am
   POMASS =   7.01 58.93 16.00
  Ionic Valenz
   ZVAL   =   3.00  9.00  6.00
  Atomic Wigner-Seitz radii
   RWIGS  =  -1.00 -1.00 -1.00
  virtual crystal weights 
   VCA    =   1.00  1.00  1.00
   NELECT =      72.0000    total number of electrons
   NUPDOWN=      -1.0000    fix difference up-down

 DOS related values:
   EMIN   =  10.00;   EMAX   =-10.00  energy-range for DOS
   EFERMI =   0.00
   ISMEAR =    -5;   SIGMA  =   0.05  broadening in eV -4-tet -1-fermi 0-gaus

 Electronic relaxation 2 (details)
   IALGO  =     68    algorithm
   LDIAG  =      T    sub-space diagonalisation (order eigenvalues)
   LSUBROT=      F    optimize rotation matrix (better conditioning)
   TURBO    =      0    0=normal 1=particle mesh
   IRESTART =      0    0=no restart 2=restart with 2 vectors
   NREBOOT  =      0    no. of reboots
   NMIN     =      0    reboot dimension
   EREF     =   0.00    reference energy to select bands
   IMIX   =      4    mixing-type and parameters
     AMIX     =   0.40;   BMIX     =  1.00
     AMIX_MAG =   1.60;   BMIX_MAG =  1.00
     AMIN     =   0.10
     WC   =   100.;   INIMIX=   1;  MIXPRE=   1;  MAXMIX= -45

 Intra band minimization:
   WEIMIN = 0.0010     energy-eigenvalue tresh-hold
   EBREAK =  0.31E-06  absolut break condition
   DEPER  =   0.30     relativ break condition  

   TIME   =   0.40     timestep for ELM

  volume/ion in A,a.u.               =       8.04        54.23
  Fermi-wavevector in a.u.,A,eV,Ry     =   1.485173  2.806571 30.010912  2.205740
  Thomas-Fermi vector in A             =   2.598618
 
 Write flags
   LWAVE        =      F    write WAVECAR
   LDOWNSAMPLE  =      F    k-point downsampling of WAVECAR
   LCHARG       =      T    write CHGCAR
   LVTOT        =      F    write LOCPOT, total local potential
   LVHAR        =      F    write LOCPOT, Hartree potential only
   LELF         =      F    write electronic localiz. function (ELF)
   LORBIT       =     11    0 simple, 1 ext, 2 COOP (PROOUT), +10 PAW based schemes


 Dipole corrections
   LMONO  =      F    monopole corrections only (constant potential shift)
   LDIPOL =      F    correct potential (dipole corrections)
   IDIPOL =      0    1-x, 2-y, 3-z, 4-all directions 
   EPSILON=  1.0000000 bulk dielectric constant

 LDA+U is selected, type is set to LDAUTYPE =  2
   angular momentum for each species LDAUL =     0    2    0
   U (eV)           for each species LDAUU =   0.0  3.3  0.0
   J (eV)           for each species LDAUJ =   0.0  0.0  0.0
 Exchange correlation treatment:
   GGA     =    --    GGA type
   LEXCH   =     8    internal setting for exchange type
   VOSKOWN=      0    Vosko Wilk Nusair interpolation
   LHFCALC =     F    Hartree Fock is set to
   LHFONE  =     F    Hartree Fock one center treatment
   AEXX    =    0.0000 exact exchange contribution

 Linear response parameters
   LEPSILON=     F    determine dielectric tensor
   LRPA    =     F    only Hartree local field effects (RPA)
   LNABLA  =     F    use nabla operator in PAW spheres
   LVEL    =     F    velocity operator in full k-point grid
   LINTERFAST=   F  fast interpolation
   KINTER  =     0    interpolate to denser k-point grid
   CSHIFT  =0.1000    complex shift for real part using Kramers Kronig
   OMEGAMAX=  -1.0    maximum frequency
   DEG_THRESHOLD= 0.2000000E-02 threshold for treating states as degnerate
   RTIME   =   -0.100 relaxation time in fs
  (WPLASMAI=    0.000 imaginary part of plasma frequency in eV, 0.658/RTIME)
   DFIELD  = 0.0000000 0.0000000 0.0000000 field for delta impulse in time
 
 Orbital magnetization related:
   ORBITALMAG=     F  switch on orbital magnetization
   LCHIMAG   =     F  perturbation theory with respect to B field
   DQ        =  0.001000  dq finite difference perturbation B field
   LLRAUG    =     F  two centre corrections for induced B field



--------------------------------------------------------------------------------------------------------


 conjugate gradient relaxation of ions
 charge density and potential will be updated during run
 spin polarized calculation
 RMM-DIIS sequential band-by-band and
  variant of blocked Davidson during initial phase
 perform sub-space diagonalisation
    before iterative eigenvector-optimisation
 modified Broyden-mixing scheme, WC =      100.0
 initial mixing is a Kerker type mixing with AMIX =  0.4000 and BMIX =      1.0000
 Hartree-type preconditioning will be used
 using additional bands           44
 real space projection scheme for non local part
 use partial core corrections
 calculate Harris-corrections to forces 
   (improved forces if not selfconsistent)
 use gradient corrections 
 use of overlap-Matrix (Vanderbilt PP)
 Fermi weights with tetrahedron method with Bloechl corrections


--------------------------------------------------------------------------------------------------------


  energy-cutoff  :      520.00
  volume of cell :       96.43
      direct lattice vectors                 reciprocal lattice vectors
     2.815000000  0.000000000  0.000000000     0.355239787  0.205097787  0.000000000
    -1.407500000  2.437861512  0.000000000     0.000000000  0.410195573  0.000000000
     0.000000000  0.000000000 14.052000000     0.000000000  0.000000000  0.071164247

  length of vectors
     2.815000000  2.815000000 14.052000000     0.410195573  0.410195573  0.071164247


 
 k-points in units of 2pi/SCALE and weight: pymatgen with grid density = 2001 / numb
   0.00000000  0.00000000  0.00000000       0.012
   0.03947109  0.02278864  0.00000000       0.074
   0.07894217  0.04557729  0.00000000       0.074
   0.11841326  0.06836593  0.00000000       0.074
   0.15788435  0.09115457  0.00000000       0.074
   0.03947109  0.06836593  0.00000000       0.074
   0.07894217  0.09115457  0.00000000       0.148
   0.11841326  0.11394321  0.00000000       0.148
   0.15788435  0.13673186  0.00000000       0.074
   0.07894217  0.13673186  0.00000000       0.074
   0.11841326  0.15952050  0.00000000       0.148
   0.11841326  0.20509779  0.00000000       0.025
 
 k-points in reciprocal lattice and weights: pymatgen with grid density = 2001 / numb
   0.00000000  0.00000000  0.00000000       0.012
   0.11111111 -0.00000000  0.00000000       0.074
   0.22222222 -0.00000000  0.00000000       0.074
   0.33333333  0.00000000  0.00000000       0.074
   0.44444444 -0.00000000  0.00000000       0.074
   0.11111111  0.11111111  0.00000000       0.074
   0.22222222  0.11111111  0.00000000       0.148
   0.33333333  0.11111111  0.00000000       0.148
   0.44444444  0.11111111  0.00000000       0.074
   0.22222222  0.22222222  0.00000000       0.074
   0.33333333  0.22222222  0.00000000       0.148
   0.33333333  0.33333333  0.00000000       0.025
 
 position of ions in fractional coordinates (direct lattice) 
   0.00000000  0.00000000  0.00000000
   0.66666667  0.33333333  0.33333333
   0.33333333  0.66666667  0.66666667
   0.00000000  0.00000000  0.50000000
   0.66666667  0.33333333  0.83333333
   0.33333333  0.66666667  0.16666667
   0.00000000  0.00000000  0.26160000
   0.00000000  0.00000000  0.73840000
   0.66666667  0.33333333  0.59493333
   0.66666667  0.33333333  0.07173333
   0.33333333  0.66666667  0.92826667
   0.33333333  0.66666667  0.40506667
 
 position of ions in cartesian coordinates  (Angst):
   0.00000000  0.00000000  0.00000000
   1.40750000  0.81262050  4.68400000
   0.00000000  1.62524101  9.36800000
   0.00000000  0.00000000  7.02600000
   1.40750000  0.81262050 11.71000000
   0.00000000  1.62524101  2.34200000
   0.00000000  0.00000000  3.67600320
   0.00000000  0.00000000 10.37599680
   1.40750000  0.81262050  8.36000320
   1.40750000  0.81262050  1.00799680
   0.00000000  1.62524101 13.04400320
   0.00000000  1.62524101  5.69199680
 


--------------------------------------------------------------------------------------------------------


 k-point  1 :   0.0000 0.0000 0.0000  plane waves:    2585
 k-point  2 :   0.1111-0.0000 0.0000  plane waves:    2595
 k-point  3 :   0.2222-0.0000 0.0000  plane waves:    2605
 k-point  4 :   0.3333 0.0000 0.0000  plane waves:    2605
 k-point  5 :   0.4444-0.0000 0.0000  plane waves:    2613
 k-point  6 :   0.1111 0.1111 0.0000  plane waves:    2595
 k-point  7 :   0.2222 0.1111 0.0000  plane waves:    2593
 k-point  8 :   0.3333 0.1111 0.0000  plane waves:    2606
 k-point  9 :   0.4444 0.1111 0.0000  plane waves:    2598
 k-point 10 :   0.2222 0.2222 0.0000  plane waves:    2593
 k-point 11 :   0.3333 0.2222 0.0000  plane waves:    2587
 k-point 12 :   0.3333 0.3333 0.0000  plane waves:    2589

 maximum and minimum number of plane-waves per node :      2613     2585

 maximum number of plane-waves:      2613
 maximum index in each direction: 
   IXMAX=    5   IYMAX=    5   IZMAX=   26
   IXMIN=   -5   IYMIN=   -5   IZMIN=  -26


 serial   3D FFT for wavefunctions
 parallel 3D FFT for charge:
    minimum data exchange during FFTs selected (reduces bandwidth)


 total amount of memory used by VASP MPI-rank0    47704. kBytes
=======================================================================

   base      :      30000. kBytes
   nonlr-proj:       7490. kBytes
   fftplans  :        889. kBytes
   grid      :       6833. kBytes
   one-center:        373. kBytes
   wavefun   :       2119. kBytes
 
     INWAV:  cpu time    0.0004: real time    0.0006
 Broyden mixing: mesh for mixing (old mesh)
   NGX = 11   NGY = 11   NGZ = 53
  (NGX  = 48   NGY  = 48   NGZ  =216)
  gives a total of   6413 points

 initial charge density was supplied:
 charge density of overlapping atoms calculated
 number of electron      72.0000000 magnetization       7.2000000
 keeping initial charge density in first step


--------------------------------------------------------------------------------------------------------


 Maximum index for non-local projection operator         7901
 Maximum index for augmentation-charges         1656 (set IRDMAX)


--------------------------------------------------------------------------------------------------------


 First call to EWALD:  gamma=   0.387
 Maximum number of real-space cells 5x 5x 1
 Maximum number of reciprocal cells 2x 2x 7

    FEWALD:  cpu time    0.0012: real time    0.0012


--------------------------------------- Iteration      1(   1)  ---------------------------------------


    POTLOK:  cpu time    0.0226: real time    0.0322
    SETDIJ:  cpu time    0.4213: real time    0.4235
atom =   1  type =  1  l = 0
 
 onsite density matrix
 
spin component  1
 
  1.2239
 
spin component  2
 
  0.8159
 
 occupancies and eigenvectors
 
  o =  0.8159  v =  0.0000  1.0000      0.0000  0.0000
  o =  1.2239  v =  1.0000  0.0000      0.0000  0.0000
atom =   2  type =  1  l = 0
 
 onsite density matrix
 
spin component  1
 
  1.2239
 
spin component  2
 
  0.8159
 
 occupancies and eigenvectors
 
  o =  0.8159  v =  0.0000  1.0000      0.0000  0.0000
  o =  1.2239  v =  1.0000  0.0000      0.0000  0.0000
atom =   3  type =  1  l = 0
 
 onsite density matrix
 
spin component  1
 
  1.2239
 
spin component  2
 
  0.8159
 
 occupancies and eigenvectors
 
  o =  0.8159  v =  0.0000  1.0000      0.0000  0.0000
  o =  1.2239  v =  1.0000  0.0000      0.0000  0.0000
atom =   4  type =  2  l = 2
 
 onsite density matrix
 
spin component  1
 
  0.7913  0.0000  0.0000  0.0000  0.0000
  0.0000  0.7913  0.0000  0.0000  0.0000
  0.0000  0.0000  0.7913  0.0000 -0.0000
  0.0000  0.0000  0.0000  0.7913  0.0000
  0.0000  0.0000 -0.0000  0.0000  0.7913
 
spin component  2
 
  0.6923  0.0000  0.0000  0.0000  0.0000
  0.0000  0.6923  0.0000  0.0000  0.0000
  0.0000  0.0000  0.6923  0.0000 -0.0000
  0.0000  0.0000  0.0000  0.6923  0.0000
  0.0000  0.0000 -0.0000  0.0000  0.6923
 
 occupancies and eigenvectors
 
  o =  0.6923  v =  0.0000  0.0000  0.0000  0.0000  0.0000  1.0000  0.0000  0.0000  0.0000  0.0000      0.0000  0.0000  0.0000  0.0000  0.0000  0.0000  0.0000  0.0000  0.0000  0.0000
  o =  0.6923  v =  0.0000  0.0000  0.0000  0.0000  0.0000  0.0000  1.0000  0.0000  0.0000  0.0000      0.0000  0.0000  0.0000  0.0000  0.0000  0.0000  0.0000  0.0000  0.0000  0.0000
  o =  0.6923  v =  0.0000  0.0000  0.0000  0.0000  0.0000  0.0000  0.0000  1.0000  0.0000  0.0000      0.0000  0.0000  0.0000  0.0000  0.0000  0.0000  0.0000  0.0000  0.0000  0.0000
  o =  0.6923  v =  0.0000  0.0000  0.0000  0.0000  0.0000  0.0000  0.0000  0.0000  0.0000  1.0000      0.0000  0.0000  0.0000  0.0000  0.0000  0.0000  0.0000  0.0000  0.0000  0.0000
  o =  0.6923  v =  0.0000  0.0000  0.0000  0.0000  0.0000  0.0000  0.0000  0.0000  1.0000  0.0000      0.0000  0.0000  0.0000  0.0000  0.0000  0.0000  0.0000  0.0000  0.0000  0.0000
  o =  0.7913  v =  0.0000  0.0000  0.0000  0.7071 -0.7071  0.0000  0.0000  0.0000  0.0000  0.0000      0.0000  0.0000  0.0000  0.0000  0.0000  0.0000  0.0000  0.0000  0.0000  0.0000
  o =  0.7913  v =  0.0000  1.0000  0.0000  0.0000  0.0000  0.0000  0.0000  0.0000  0.0000  0.0000      0.0000  0.0000  0.0000  0.0000  0.0000  0.0000  0.0000  0.0000  0.0000  0.0000
  o =  0.7913  v =  0.0000  0.0000  1.0000  0.0000  0.0000  0.0000  0.0000  0.0000  0.0000  0.0000      0.0000  0.0000  0.0000  0.0000  0.0000  0.0000  0.0000  0.0000  0.0000  0.0000
  o =  0.7913  v =  0.0000  0.0000  0.0000  0.7071  0.7071  0.0000  0.0000  0.0000  0.0000  0.0000      0.0000  0.0000  0.0000  0.0000  0.0000  0.0000  0.0000  0.0000  0.0000  0.0000
  o =  0.7913  v =  1.0000  0.0000  0.0000  0.0000  0.0000  0.0000  0.0000  0.0000  0.0000  0.0000      0.0000  0.0000  0.0000  0.0000  0.0000  0.0000  0.0000  0.0000  0.0000  0.0000
atom =   5  type =  2  l = 2
 
 onsite density matrix
 
spin component  1
 
  0.7913  0.0000  0.0000  0.0000  0.0000
  0.0000  0.7913  0.0000  0.0000  0.0000
  0.0000  0.0000  0.7913  0.0000 -0.0000
  0.0000  0.0000  0.0000  0.7913  0.0000
  0.0000  0.0000 -0.0000  0.0000  0.7913
 
spin component  2
 
  0.6923  0.0000  0.0000  0.0000  0.0000
  0.0000  0.6923  0.0000  0.0000  0.0000
  0.0000  0.0000  0.6923  0.0000 -0.0000
  0.0000  0.0000  0.0000  0.6923  0.0000
  0.0000  0.0000 -0.0000  0.0000  0.6923
 
 occupancies and eigenvectors
 
  o =  0.6923  v =  0.0000  0.0000  0.0000  0.0000  0.0000  1.0000  0.0000  0.0000  0.0000  0.0000      0.0000  0.0000  0.0000  0.0000  0.0000  0.0000  0.0000  0.0000  0.0000  0.0000
  o =  0.6923  v =  0.0000  0.0000  0.0000  0.0000  0.0000  0.0000  1.0000  0.0000  0.0000  0.0000      0.0000  0.0000  0.0000  0.0000  0.0000  0.0000  0.0000  0.0000  0.0000  0.0000
  o =  0.6923  v =  0.0000  0.0000  0.0000  0.0000  0.0000  0.0000  0.0000  1.0000  0.0000  0.0000      0.0000  0.0000  0.0000  0.0000  0.0000  0.0000  0.0000  0.0000  0.0000  0.0000
  o =  0.6923  v =  0.0000  0.0000  0.0000  0.0000  0.0000  0.0000  0.0000  0.0000  0.0000  1.0000      0.0000  0.0000  0.0000  0.0000  0.0000  0.0000  0.0000  0.0000  0.0000  0.0000
  o =  0.6923  v =  0.0000  0.0000  0.0000  0.0000  0.0000  0.0000  0.0000  0.0000  1.0000  0.0000      0.0000  0.0000  0.0000  0.0000  0.0000  0.0000  0.0000  0.0000  0.0000  0.0000
  o =  0.7913  v =  0.0000  0.0000  0.0000  0.7071 -0.7071  0.0000  0.0000  0.0000  0.0000  0.0000      0.0000  0.0000  0.0000  0.0000  0.0000  0.0000  0.0000  0.0000  0.0000  0.0000
  o =  0.7913  v =  0.0000  1.0000  0.0000  0.0000  0.0000  0.0000  0.0000  0.0000  0.0000  0.0000      0.0000  0.0000  0.0000  0.0000  0.0000  0.0000  0.0000  0.0000  0.0000  0.0000
  o =  0.7913  v =  0.0000  0.0000  1.0000  0.0000  0.0000  0.0000  0.0000  0.0000  0.0000  0.0000      0.0000  0.0000  0.0000  0.0000  0.0000  0.0000  0.0000  0.0000  0.0000  0.0000
  o =  0.7913  v =  0.0000  0.0000  0.0000  0.7071  0.7071  0.0000  0.0000  0.0000  0.0000  0.0000      0.0000  0.0000  0.0000  0.0000  0.0000  0.0000  0.0000  0.0000  0.0000  0.0000
  o =  0.7913  v =  1.0000  0.0000  0.0000  0.0000  0.0000  0.0000  0.0000  0.0000  0.0000  0.0000      0.0000  0.0000  0.0000  0.0000  0.0000  0.0000  0.0000  0.0000  0.0000  0.0000
atom =   6  type =  2  l = 2
 
 onsite density matrix
 
spin component  1
 
  0.7913  0.0000  0.0000  0.0000  0.0000
  0.0000  0.7913  0.0000  0.0000  0.0000
  0.0000  0.0000  0.7913  0.0000 -0.0000
  0.0000  0.0000  0.0000  0.7913  0.0000
  0.0000  0.0000 -0.0000  0.0000  0.7913
 
spin component  2
 
  0.6923  0.0000  0.0000  0.0000  0.0000
  0.0000  0.6923  0.0000  0.0000  0.0000
  0.0000  0.0000  0.6923  0.0000 -0.0000
  0.0000  0.0000  0.0000  0.6923  0.0000
  0.0000  0.0000 -0.0000  0.0000  0.6923
 
 occupancies and eigenvectors
 
  o =  0.6923  v =  0.0000  0.0000  0.0000  0.0000  0.0000  1.0000  0.0000  0.0000  0.0000  0.0000      0.0000  0.0000  0.0000  0.0000  0.0000  0.0000  0.0000  0.0000  0.0000  0.0000
  o =  0.6923  v =  0.0000  0.0000  0.0000  0.0000  0.0000  0.0000  1.0000  0.0000  0.0000  0.0000      0.0000  0.0000  0.0000  0.0000  0.0000  0.0000  0.0000  0.0000  0.0000  0.0000
  o =  0.6923  v =  0.0000  0.0000  0.0000  0.0000  0.0000  0.0000  0.0000  1.0000  0.0000  0.0000      0.0000  0.0000  0.0000  0.0000  0.0000  0.0000  0.0000  0.0000  0.0000  0.0000
  o =  0.6923  v =  0.0000  0.0000  0.0000  0.0000  0.0000  0.0000  0.0000  0.0000  0.0000  1.0000      0.0000  0.0000  0.0000  0.0000  0.0000  0.0000  0.0000  0.0000  0.0000  0.0000
  o =  0.6923  v =  0.0000  0.0000  0.0000  0.0000  0.0000  0.0000  0.0000  0.0000  1.0000  0.0000      0.0000  0.0000  0.0000  0.0000  0.0000  0.0000  0.0000  0.0000  0.0000  0.0000
  o =  0.7913  v =  0.0000  0.0000  0.0000  0.7071 -0.7071  0.0000  0.0000  0.0000  0.0000  0.0000      0.0000  0.0000  0.0000  0.0000  0.0000  0.0000  0.0000  0.0000  0.0000  0.0000
  o =  0.7913  v =  0.0000  1.0000  0.0000  0.0000  0.0000  0.0000  0.0000  0.0000  0.0000  0.0000      0.0000  0.0000  0.0000  0.0000  0.0000  0.0000  0.0000  0.0000  0.0000  0.0000
  o =  0.7913  v =  0.0000  0.0000  1.0000  0.0000  0.0000  0.0000  0.0000  0.0000  0.0000  0.0000      0.0000  0.0000  0.0000  0.0000  0.0000  0.0000  0.0000  0.0000  0.0000  0.0000
  o =  0.7913  v =  0.0000  0.0000  0.0000  0.7071  0.7071  0.0000  0.0000  0.0000  0.0000  0.0000      0.0000  0.0000  0.0000  0.0000  0.0000  0.0000  0.0000  0.0000  0.0000  0.0000
  o =  0.7913  v =  1.0000  0.0000  0.0000  0.0000  0.0000  0.0000  0.0000  0.0000  0.0000  0.0000      0.0000  0.0000  0.0000  0.0000  0.0000  0.0000  0.0000  0.0000  0.0000  0.0000
atom =   7  type =  3  l = 0
 
 onsite density matrix
 
spin component  1
 
  0.9009
 
spin component  2
 
  0.7371
 
 occupancies and eigenvectors
 
  o =  0.7371  v =  0.0000  1.0000      0.0000  0.0000
  o =  0.9009  v =  1.0000  0.0000      0.0000  0.0000
atom =   8  type =  3  l = 0
 
 onsite density matrix
 
spin component  1
 
  0.9009
 
spin component  2
 
  0.7371
 
 occupancies and eigenvectors
 
  o =  0.7371  v =  0.0000  1.0000      0.0000  0.0000
  o =  0.9009  v =  1.0000  0.0000      0.0000  0.0000
atom =   9  type =  3  l = 0
 
 onsite density matrix
 
spin component  1
 
  0.9009
 
spin component  2
 
  0.7371
 
 occupancies and eigenvectors
 
  o =  0.7371  v =  0.0000  1.0000      0.0000  0.0000
  o =  0.9009  v =  1.0000  0.0000      0.0000  0.0000
atom =  10  type =  3  l = 0
 
 onsite density matrix
 
spin component  1
 
  0.9009
 
spin component  2
 
  0.7371
 
 occupancies and eigenvectors
 
  o =  0.7371  v =  0.0000  1.0000      0.0000  0.0000
  o =  0.9009  v =  1.0000  0.0000      0.0000  0.0000
atom =  11  type =  3  l = 0
 
 onsite density matrix
 
spin component  1
 
  0.9009
 
spin component  2
 
  0.7371
 
 occupancies and eigenvectors
 
  o =  0.7371  v =  0.0000  1.0000      0.0000  0.0000
  o =  0.9009  v =  1.0000  0.0000      0.0000  0.0000
atom =  12  type =  3  l = 0
 
 onsite density matrix
 
spin component  1
 
  0.9009
 
spin component  2
 
  0.7371
 
 occupancies and eigenvectors
 
  o =  0.7371  v =  0.0000  1.0000      0.0000  0.0000
  o =  0.9009  v =  1.0000  0.0000      0.0000  0.0000
     EDDAV:  cpu time    1.4165: real time    1.4295
 BZINTS: Fermi energy: 16.049489; 72.000000 electrons
         Band energy: 177.210103;  BLOECHL correction: -0.070249
       DOS:  cpu time    0.0118: real time    0.0119
    --------------------------------------------
      LOOP:  cpu time    1.8723: real time    1.8971

 eigenvalue-minimisations  :  3840
 total energy-change (2. order) : 0.3304492E+03  (-0.3472754E+04)
 number of electron      72.0000000 magnetization       7.2000000
 augmentation part       72.0000000 magnetization       7.2000000

 Free energy of the ion-electron system (eV)
  ---------------------------------------------------
  alpha Z        PSCENC =       226.35407902
  Ewald energy   TEWEN  =     -4702.04902416
  -Hartree energ DENC   =     -1079.91247951
  -exchange      EXHF   =         0.00000000
  -V(xc)+E(xc)   XCENC  =       254.77002550
  PAW double counting   =      4480.92503455    -4669.40754520
  entropy T*S    EENTRO =         0.00000000
  eigenvalues    EBANDS =       177.21010302
  atomic energy  EATOM  =      5642.55902661
  Solvation  Ediel_sol  =         0.00000000
  ---------------------------------------------------
  free energy    TOTEN  =       330.44921983 eV

  energy without entropy =      330.44921983  energy(sigma->0) =      330.44921983


--------------------------------------------------------------------------------------------------------




--------------------------------------- Iteration      1(   2)  ---------------------------------------


     EDDAV:  cpu time    1.6707: real time    1.6886
 BZINTS: Fermi energy:  9.381691; 72.000000 electrons
         Band energy:-216.356764;  BLOECHL correction: -0.059510
       DOS:  cpu time    0.0118: real time    0.0119
    --------------------------------------------
      LOOP:  cpu time    1.6826: real time    1.7005

 eigenvalue-minimisations  :  4600
 total energy-change (2. order) :-0.3935669E+03  (-0.3578326E+03)
 number of electron      72.0000000 magnetization       7.2000000
 augmentation part       72.0000000 magnetization       7.2000000

 Free energy of the ion-electron system (eV)
  ---------------------------------------------------
  alpha Z        PSCENC =       226.35407902
  Ewald energy   TEWEN  =     -4702.04902416
  -Hartree energ DENC   =     -1079.91247951
  -exchange      EXHF   =         0.00000000
  -V(xc)+E(xc)   XCENC  =       254.77002550
  PAW double counting   =      4480.92503455    -4669.40754520
  entropy T*S    EENTRO =         0.00000000
  eigenvalues    EBANDS =      -216.35676383
  atomic energy  EATOM  =      5642.55902661
  Solvation  Ediel_sol  =         0.00000000
  ---------------------------------------------------
  free energy    TOTEN  =       -63.11764702 eV

  energy without entropy =      -63.11764702  energy(sigma->0) =      -63.11764702


--------------------------------------------------------------------------------------------------------




--------------------------------------- Iteration      1(   3)  ---------------------------------------


     EDDAV:  cpu time    2.4111: real time    2.4393
 BZINTS: Fermi energy:  9.145386; 72.000000 electrons
         Band energy:-236.433170;  BLOECHL correction: -0.072180
       DOS:  cpu time    0.0120: real time    0.0120
    --------------------------------------------
      LOOP:  cpu time    2.4230: real time    2.4513

 eigenvalue-minimisations  :  6520
 total energy-change (2. order) :-0.2007641E+02  (-0.1984471E+02)
 number of electron      72.0000000 magnetization       7.2000000
 augmentation part       72.0000000 magnetization       7.2000000

 Free energy of the ion-electron system (eV)
  ---------------------------------------------------
  alpha Z        PSCENC =       226.35407902
  Ewald energy   TEWEN  =     -4702.04902416
  -Hartree energ DENC   =     -1079.91247951
  -exchange      EXHF   =         0.00000000
  -V(xc)+E(xc)   XCENC  =       254.77002550
  PAW double counting   =      4480.92503455    -4669.40754520
  entropy T*S    EENTRO =         0.00000000
  eigenvalues    EBANDS =      -236.43317046
  atomic energy  EATOM  =      5642.55902661
  Solvation  Ediel_sol  =         0.00000000
  ---------------------------------------------------
  free energy    TOTEN  =       -83.19405366 eV

  energy without entropy =      -83.19405366  energy(sigma->0) =      -83.19405366


--------------------------------------------------------------------------------------------------------




--------------------------------------- Iteration      1(   4)  ---------------------------------------


     EDDAV:  cpu time    1.7080: real time    1.7237
 BZINTS: Fermi energy:  9.144676; 72.000000 electrons
         Band energy:-236.565295;  BLOECHL correction: -0.072167
       DOS:  cpu time    0.0119: real time    0.0120
    --------------------------------------------
      LOOP:  cpu time    1.7199: real time    1.7357

 eigenvalue-minimisations  :  4640
 total energy-change (2. order) :-0.1321245E+00  (-0.1320975E+00)
 number of electron      72.0000000 magnetization       7.2000000
 augmentation part       72.0000000 magnetization       7.2000000

 Free energy of the ion-electron system (eV)
  ---------------------------------------------------
  alpha Z        PSCENC =       226.35407902
  Ewald energy   TEWEN  =     -4702.04902416
  -Hartree energ DENC   =     -1079.91247951
  -exchange      EXHF   =         0.00000000
  -V(xc)+E(xc)   XCENC  =       254.77002550
  PAW double counting   =      4480.92503455    -4669.40754520
  entropy T*S    EENTRO =         0.00000000
  eigenvalues    EBANDS =      -236.56529492
  atomic energy  EATOM  =      5642.55902661
  Solvation  Ediel_sol  =         0.00000000
  ---------------------------------------------------
  free energy    TOTEN  =       -83.32617811 eV

  energy without entropy =      -83.32617811  energy(sigma->0) =      -83.32617811


--------------------------------------------------------------------------------------------------------




--------------------------------------- Iteration      1(   5)  ---------------------------------------


     EDDAV:  cpu time    1.9957: real time    2.0151
 BZINTS: Fermi energy:  9.144670; 72.000000 electrons
         Band energy:-236.566465;  BLOECHL correction: -0.072167
       DOS:  cpu time    0.0116: real time    0.0117
    CHARGE:  cpu time    0.0336: real time    0.0338
    MIXING:  cpu time    0.0010: real time    0.0010
    --------------------------------------------
      LOOP:  cpu time    2.0419: real time    2.0616

 eigenvalue-minimisations  :  5360
 total energy-change (2. order) :-0.1169956E-02  (-0.1170426E-02)
 number of electron      71.9999989 magnetization       7.1329755
 augmentation part       19.7695381 magnetization       5.1265467

 Broyden mixing:
  rms(total) = 0.42540E+01    rms(broyden)= 0.42537E+01
  rms(prec ) = 0.48720E+01
  weight for this iteration     100.00

 Free energy of the ion-electron system (eV)
  ---------------------------------------------------
  alpha Z        PSCENC =       226.35407902
  Ewald energy   TEWEN  =     -4702.04902416
  -Hartree energ DENC   =     -1079.91247951
  -exchange      EXHF   =         0.00000000
  -V(xc)+E(xc)   XCENC  =       254.77002550
  PAW double counting   =      4480.92503455    -4669.40754520
  entropy T*S    EENTRO =         0.00000000
  eigenvalues    EBANDS =      -236.56646487
  atomic energy  EATOM  =      5642.55902661
  Solvation  Ediel_sol  =         0.00000000
  ---------------------------------------------------
  free energy    TOTEN  =       -83.32734807 eV

  energy without entropy =      -83.32734807  energy(sigma->0) =      -83.32734807


--------------------------------------------------------------------------------------------------------




--------------------------------------- Iteration      1(   6)  ---------------------------------------


    POTLOK:  cpu time    0.0277: real time    0.0285
    SETDIJ:  cpu time    0.4188: real time    0.4211
atom =   1  type =  1  l = 0
 
 onsite density matrix
 
spin component  1
 
  0.8986
 
spin component  2
 
  1.1407
 
 occupancies and eigenvectors
 
  o =  0.8986  v =  1.0000  0.0000      0.0000  0.0000
  o =  1.1407  v =  0.0000  1.0000      0.0000  0.0000
atom =   2  type =  1  l = 0
 
 onsite density matrix
 
spin component  1
 
  0.8986
 
spin component  2
 
  1.1407
 
 occupancies and eigenvectors
 
  o =  0.8986  v =  1.0000  0.0000      0.0000  0.0000
  o =  1.1407  v =  0.0000  1.0000      0.0000  0.0000
atom =   3  type =  1  l = 0
 
 onsite density matrix
 
spin component  1
 
  0.8986
 
spin component  2
 
  1.1407
 
 occupancies and eigenvectors
 
  o =  0.8986  v =  1.0000  0.0000      0.0000  0.0000
  o =  1.1407  v =  0.0000  1.0000      0.0000  0.0000
atom =   4  type =  2  l = 2
 
 onsite density matrix
 
spin component  1
 
  0.9834  0.0000  0.0000 -0.0175 -0.0000
  0.0000  0.9983 -0.0000 -0.0000 -0.0175
  0.0000 -0.0000  1.0044 -0.0000  0.0000
 -0.0175 -0.0000 -0.0000  0.9983  0.0000
 -0.0000 -0.0175  0.0000  0.0000  0.9834
 
spin component  2
 
  0.4120  0.0000 -0.0000 -0.1190 -0.0000
  0.0000  0.2717 -0.0000  0.0000 -0.1190
 -0.0000 -0.0000  0.4768  0.0000 -0.0000
 -0.1190  0.0000  0.0000  0.2717  0.0000
 -0.0000 -0.1190 -0.0000  0.0000  0.4120
 
 occupancies and eigenvectors
 
  o =  0.2037  v =  0.0000  0.0000  0.0000  0.0000  0.0000  0.0000 -0.8683 -0.0000  0.0000 -0.4961      0.0000  0.0000  0.0000  0.0000  0.0000  0.0000  0.0000  0.0000  0.0000  0.0000
  o =  0.2037  v =  0.0000  0.0000  0.0000  0.0000  0.0000  0.4961  0.0000  0.0000  0.8683  0.0000      0.0000  0.0000  0.0000  0.0000  0.0000  0.0000  0.0000  0.0000  0.0000  0.0000
  o =  0.4768  v =  0.0000  0.0000  0.0000  0.0000  0.0000  0.0000  0.0000  1.0000 -0.0000 -0.0000      0.0000  0.0000  0.0000  0.0000  0.0000  0.0000  0.0000  0.0000  0.0000  0.0000
  o =  0.4800  v =  0.0000  0.0000  0.0000  0.0000  0.0000  0.8683  0.0000 -0.0000 -0.4961 -0.0001      0.0000  0.0000  0.0000  0.0000  0.0000  0.0000  0.0000  0.0000  0.0000  0.0000
  o =  0.4800  v =  0.0000  0.0000  0.0000  0.0000  0.0000  0.0001 -0.4961  0.0000 -0.0000  0.8683      0.0000  0.0000  0.0000  0.0000  0.0000  0.0000  0.0000  0.0000  0.0000  0.0000
  o =  0.9719  v = -0.8342  0.0000  0.0000 -0.5514 -0.0000  0.0000  0.0000  0.0000  0.0000  0.0000      0.0000  0.0000  0.0000  0.0000  0.0000  0.0000  0.0000  0.0000  0.0000  0.0000
  o =  0.9719  v =  0.0000  0.5514 -0.0000 -0.0000  0.8342  0.0000  0.0000  0.0000  0.0000  0.0000      0.0000  0.0000  0.0000  0.0000  0.0000  0.0000  0.0000  0.0000  0.0000  0.0000
  o =  1.0044  v =  0.0000 -0.0000 -1.0000 -0.0000  0.0000  0.0000  0.0000  0.0000  0.0000  0.0000      0.0000  0.0000  0.0000  0.0000  0.0000  0.0000  0.0000  0.0000  0.0000  0.0000
  o =  1.0098  v = -0.5514  0.0000 -0.0000  0.8342  0.0000  0.0000  0.0000  0.0000  0.0000  0.0000      0.0000  0.0000  0.0000  0.0000  0.0000  0.0000  0.0000  0.0000  0.0000  0.0000
  o =  1.0098  v =  0.0000 -0.8342  0.0000 -0.0000  0.5514  0.0000  0.0000  0.0000  0.0000  0.0000      0.0000  0.0000  0.0000  0.0000  0.0000  0.0000  0.0000  0.0000  0.0000  0.0000
atom =   5  type =  2  l = 2
 
 onsite density matrix
 
spin component  1
 
  0.9834  0.0000 -0.0000 -0.0175 -0.0000
  0.0000  0.9983 -0.0000 -0.0000 -0.0175
 -0.0000 -0.0000  1.0044 -0.0000  0.0000
 -0.0175 -0.0000 -0.0000  0.9983  0.0000
 -0.0000 -0.0175  0.0000  0.0000  0.9834
 
spin component  2
 
  0.4120  0.0000 -0.0000 -0.1190  0.0000
  0.0000  0.2717 -0.0000 -0.0000 -0.1190
 -0.0000 -0.0000  0.4768 -0.0000 -0.0000
 -0.1190 -0.0000 -0.0000  0.2717  0.0000
  0.0000 -0.1190 -0.0000  0.0000  0.4120
 
 occupancies and eigenvectors
 
  o =  0.2037  v =  0.0000  0.0000  0.0000  0.0000  0.0000 -0.0000  0.8683  0.0000 -0.0000  0.4961      0.0000  0.0000  0.0000  0.0000  0.0000  0.0000  0.0000  0.0000  0.0000  0.0000
  o =  0.2037  v =  0.0000  0.0000  0.0000  0.0000  0.0000  0.4961  0.0000  0.0000  0.8683  0.0000      0.0000  0.0000  0.0000  0.0000  0.0000  0.0000  0.0000  0.0000  0.0000  0.0000
  o =  0.4768  v =  0.0000  0.0000  0.0000  0.0000  0.0000  0.0000  0.0000  1.0000 -0.0000 -0.0000      0.0000  0.0000  0.0000  0.0000  0.0000  0.0000  0.0000  0.0000  0.0000  0.0000
  o =  0.4800  v =  0.0000  0.0000  0.0000  0.0000  0.0000  0.8683  0.0002 -0.0000 -0.4961 -0.0004      0.0000  0.0000  0.0000  0.0000  0.0000  0.0000  0.0000  0.0000  0.0000  0.0000
  o =  0.4800  v =  0.0000  0.0000  0.0000  0.0000  0.0000  0.0004 -0.4961  0.0000 -0.0002  0.8683      0.0000  0.0000  0.0000  0.0000  0.0000  0.0000  0.0000  0.0000  0.0000  0.0000
  o =  0.9719  v =  0.8342  0.0000 -0.0000  0.5514  0.0000  0.0000  0.0000  0.0000  0.0000  0.0000      0.0000  0.0000  0.0000  0.0000  0.0000  0.0000  0.0000  0.0000  0.0000  0.0000
  o =  0.9719  v = -0.0000  0.5514 -0.0000 -0.0000  0.8342  0.0000  0.0000  0.0000  0.0000  0.0000      0.0000  0.0000  0.0000  0.0000  0.0000  0.0000  0.0000  0.0000  0.0000  0.0000
  o =  1.0044  v =  0.0000 -0.0000 -1.0000 -0.0000  0.0000  0.0000  0.0000  0.0000  0.0000  0.0000      0.0000  0.0000  0.0000  0.0000  0.0000  0.0000  0.0000  0.0000  0.0000  0.0000
  o =  1.0098  v = -0.5514  0.0000 -0.0000  0.8342 -0.0000  0.0000  0.0000  0.0000  0.0000  0.0000      0.0000  0.0000  0.0000  0.0000  0.0000  0.0000  0.0000  0.0000  0.0000  0.0000
  o =  1.0098  v =  0.0000  0.8342 -0.0000 -0.0000 -0.5514  0.0000  0.0000  0.0000  0.0000  0.0000      0.0000  0.0000  0.0000  0.0000  0.0000  0.0000  0.0000  0.0000  0.0000  0.0000
atom =   6  type =  2  l = 2
 
 onsite density matrix
 
spin component  1
 
  0.9834 -0.0000 -0.0000 -0.0175 -0.0000
 -0.0000  0.9983 -0.0000 -0.0000 -0.0175
 -0.0000 -0.0000  1.0044  0.0000  0.0000
 -0.0175 -0.0000  0.0000  0.9983  0.0000
 -0.0000 -0.0175  0.0000  0.0000  0.9834
 
spin component  2
 
  0.4120  0.0000  0.0000 -0.1190  0.0000
  0.0000  0.2717 -0.0000  0.0000 -0.1190
  0.0000 -0.0000  0.4768 -0.0000 -0.0000
 -0.1190  0.0000 -0.0000  0.2717  0.0000
  0.0000 -0.1190 -0.0000  0.0000  0.4120
 
 occupancies and eigenvectors
 
  o =  0.2037  v =  0.0000  0.0000  0.0000  0.0000  0.0000  0.0000 -0.8683 -0.0000  0.0000 -0.4961      0.0000  0.0000  0.0000  0.0000  0.0000  0.0000  0.0000  0.0000  0.0000  0.0000
  o =  0.2037  v =  0.0000  0.0000  0.0000  0.0000  0.0000  0.4961  0.0000  0.0000  0.8683  0.0000      0.0000  0.0000  0.0000  0.0000  0.0000  0.0000  0.0000  0.0000  0.0000  0.0000
  o =  0.4768  v =  0.0000  0.0000  0.0000  0.0000  0.0000  0.0000 -0.0000 -1.0000 -0.0000  0.0000      0.0000  0.0000  0.0000  0.0000  0.0000  0.0000  0.0000  0.0000  0.0000  0.0000
  o =  0.4800  v =  0.0000  0.0000  0.0000  0.0000  0.0000  0.8683  0.0004 -0.0000 -0.4961 -0.0007      0.0000  0.0000  0.0000  0.0000  0.0000  0.0000  0.0000  0.0000  0.0000  0.0000
  o =  0.4800  v =  0.0000  0.0000  0.0000  0.0000  0.0000  0.0007 -0.4961  0.0000 -0.0004  0.8683      0.0000  0.0000  0.0000  0.0000  0.0000  0.0000  0.0000  0.0000  0.0000  0.0000
  o =  0.9719  v = -0.8342  0.0000 -0.0000 -0.5514 -0.0000  0.0000  0.0000  0.0000  0.0000  0.0000      0.0000  0.0000  0.0000  0.0000  0.0000  0.0000  0.0000  0.0000  0.0000  0.0000
  o =  0.9719  v =  0.0000 -0.5514  0.0000  0.0000 -0.8342  0.0000  0.0000  0.0000  0.0000  0.0000      0.0000  0.0000  0.0000  0.0000  0.0000  0.0000  0.0000  0.0000  0.0000  0.0000
  o =  1.0044  v =  0.0000  0.0000  1.0000 -0.0000 -0.0000  0.0000  0.0000  0.0000  0.0000  0.0000      0.0000  0.0000  0.0000  0.0000  0.0000  0.0000  0.0000  0.0000  0.0000  0.0000
  o =  1.0098  v =  0.5514  0.0000 -0.0000 -0.8342 -0.0000  0.0000  0.0000  0.0000  0.0000  0.0000      0.0000  0.0000  0.0000  0.0000  0.0000  0.0000  0.0000  0.0000  0.0000  0.0000
  o =  1.0098  v =  0.0000 -0.8342  0.0000 -0.0000  0.5514  0.0000  0.0000  0.0000  0.0000  0.0000      0.0000  0.0000  0.0000  0.0000  0.0000  0.0000  0.0000  0.0000  0.0000  0.0000
atom =   7  type =  3  l = 0
 
 onsite density matrix
 
spin component  1
 
  0.7712
 
spin component  2
 
  0.8574
 
 occupancies and eigenvectors
 
  o =  0.7712  v =  1.0000  0.0000      0.0000  0.0000
  o =  0.8574  v =  0.0000  1.0000      0.0000  0.0000
atom =   8  type =  3  l = 0
 
 onsite density matrix
 
spin component  1
 
  0.7712
 
spin component  2
 
  0.8574
 
 occupancies and eigenvectors
 
  o =  0.7712  v =  1.0000  0.0000      0.0000  0.0000
  o =  0.8574  v =  0.0000  1.0000      0.0000  0.0000
atom =   9  type =  3  l = 0
 
 onsite density matrix
 
spin component  1
 
  0.7712
 
spin component  2
 
  0.8574
 
 occupancies and eigenvectors
 
  o =  0.7712  v =  1.0000  0.0000      0.0000  0.0000
  o =  0.8574  v =  0.0000  1.0000      0.0000  0.0000
atom =  10  type =  3  l = 0
 
 onsite density matrix
 
spin component  1
 
  0.7712
 
spin component  2
 
  0.8574
 
 occupancies and eigenvectors
 
  o =  0.7712  v =  1.0000  0.0000      0.0000  0.0000
  o =  0.8574  v =  0.0000  1.0000      0.0000  0.0000
atom =  11  type =  3  l = 0
 
 onsite density matrix
 
spin component  1
 
  0.7712
 
spin component  2
 
  0.8574
 
 occupancies and eigenvectors
 
  o =  0.7712  v =  1.0000  0.0000      0.0000  0.0000
  o =  0.8574  v =  0.0000  1.0000      0.0000  0.0000
atom =  12  type =  3  l = 0
 
 onsite density matrix
 
spin component  1
 
  0.7712
 
spin component  2
 
  0.8574
 
 occupancies and eigenvectors
 
  o =  0.7712  v =  1.0000  0.0000      0.0000  0.0000
  o =  0.8574  v =  0.0000  1.0000      0.0000  0.0000
    EDDIAG:  cpu time    0.1792: real time    0.1807
  RMM-DIIS:  cpu time    0.5738: real time    0.5843
    ORTHCH:  cpu time    0.0252: real time    0.0254
 BZINTS: Fermi energy:  5.345325; 72.000000 electrons
         Band energy:-318.632432;  BLOECHL correction: -0.145712
       DOS:  cpu time    0.0119: real time    0.0120
    CHARGE:  cpu time    0.0314: real time    0.0317
    MIXING:  cpu time    0.0004: real time    0.0004
    --------------------------------------------
      LOOP:  cpu time    1.2685: real time    1.2841

 eigenvalue-minimisations  :  3919
 total energy-change (2. order) :-0.1751899E+02  (-0.9959481E+01)
 number of electron      71.9999989 magnetization       6.7171332
 augmentation part       26.8482274 magnetization       5.8662673

 Broyden mixing:
  rms(total) = 0.81947E+01    rms(broyden)= 0.81943E+01
  rms(prec ) = 0.89123E+01
  weight for this iteration     100.00

 eigenvalues of (default mixing * dielectric matrix)
  average eigenvalue GAMMA=   0.3245
  0.3245

 Free energy of the ion-electron system (eV)
  ---------------------------------------------------
  alpha Z        PSCENC =       226.35407902
  Ewald energy   TEWEN  =     -4702.04902416
  -Hartree energ DENC   =     -1057.96582682
  -exchange      EXHF   =         0.00000000
  -V(xc)+E(xc)   XCENC  =       260.72192251
  PAW double counting   =      4803.90273191    -4955.73681480
  entropy T*S    EENTRO =         0.00000000
  eigenvalues    EBANDS =      -318.63243169
  atomic energy  EATOM  =      5642.55902661
  Solvation  Ediel_sol  =         0.00000000
  ---------------------------------------------------
  free energy    TOTEN  =      -100.84633744 eV

  energy without entropy =     -100.84633744  energy(sigma->0) =     -100.84633744


--------------------------------------------------------------------------------------------------------




--------------------------------------- Iteration      1(   7)  ---------------------------------------


    POTLOK:  cpu time    0.0242: real time    0.0321
    SETDIJ:  cpu time    0.4294: real time    0.4317
atom =   1  type =  1  l = 0
 
 onsite density matrix
 
spin component  1
 
  0.9605
 
spin component  2
 
  1.0794
 
 occupancies and eigenvectors
 
  o =  0.9605  v =  1.0000  0.0000      0.0000  0.0000
  o =  1.0794  v =  0.0000  1.0000      0.0000  0.0000
atom =   2  type =  1  l = 0
 
 onsite density matrix
 
spin component  1
 
  0.9605
 
spin component  2
 
  1.0794
 
 occupancies and eigenvectors
 
  o =  0.9605  v =  1.0000  0.0000      0.0000  0.0000
  o =  1.0794  v =  0.0000  1.0000      0.0000  0.0000
atom =   3  type =  1  l = 0
 
 onsite density matrix
 
spin component  1
 
  0.9605
 
spin component  2
 
  1.0794
 
 occupancies and eigenvectors
 
  o =  0.9605  v =  1.0000  0.0000      0.0000  0.0000
  o =  1.0794  v =  0.0000  1.0000      0.0000  0.0000
atom =   4  type =  2  l = 2
 
 onsite density matrix
 
spin component  1
 
  0.8863  0.0000  0.0000 -0.0221 -0.0000
  0.0000  0.8851 -0.0000 -0.0000 -0.0221
  0.0000 -0.0000  0.9058 -0.0000  0.0000
 -0.0221 -0.0000 -0.0000  0.8851  0.0000
 -0.0000 -0.0221  0.0000  0.0000  0.8863
 
spin component  2
 
  0.5739 -0.0000 -0.0000 -0.1042 -0.0000
 -0.0000  0.4572 -0.0000  0.0000 -0.1042
 -0.0000 -0.0000  0.6332  0.0000  0.0000
 -0.1042  0.0000  0.0000  0.4572  0.0000
 -0.0000 -0.1042  0.0000  0.0000  0.5739
 
 occupancies and eigenvectors
 
  o =  0.3961  v =  0.0000  0.0000  0.0000  0.0000  0.0000 -0.0001  0.8627 -0.0000 -0.0002  0.5057      0.0000  0.0000  0.0000  0.0000  0.0000  0.0000  0.0000  0.0000  0.0000  0.0000
  o =  0.3961  v =  0.0000  0.0000  0.0000  0.0000  0.0000 -0.5057 -0.0002  0.0000 -0.8627 -0.0001      0.0000  0.0000  0.0000  0.0000  0.0000  0.0000  0.0000  0.0000  0.0000  0.0000
  o =  0.6332  v =  0.0000  0.0000  0.0000  0.0000  0.0000 -0.0000 -0.0000 -1.0000  0.0000  0.0000      0.0000  0.0000  0.0000  0.0000  0.0000  0.0000  0.0000  0.0000  0.0000  0.0000
  o =  0.6350  v =  0.0000  0.0000  0.0000  0.0000  0.0000  0.8627  0.0000 -0.0000 -0.5057 -0.0000      0.0000  0.0000  0.0000  0.0000  0.0000  0.0000  0.0000  0.0000  0.0000  0.0000
  o =  0.6350  v =  0.0000  0.0000  0.0000  0.0000  0.0000  0.0000 -0.5057  0.0000 -0.0000  0.8627      0.0000  0.0000  0.0000  0.0000  0.0000  0.0000  0.0000  0.0000  0.0000  0.0000
  o =  0.8635  v = -0.6973  0.0000  0.0000 -0.7168 -0.0000  0.0000  0.0000  0.0000  0.0000  0.0000      0.0000  0.0000  0.0000  0.0000  0.0000  0.0000  0.0000  0.0000  0.0000  0.0000
  o =  0.8635  v =  0.0000 -0.7168  0.0000  0.0000 -0.6973  0.0000  0.0000  0.0000  0.0000  0.0000      0.0000  0.0000  0.0000  0.0000  0.0000  0.0000  0.0000  0.0000  0.0000  0.0000
  o =  0.9058  v =  0.0000 -0.0000 -1.0000 -0.0000  0.0000  0.0000  0.0000  0.0000  0.0000  0.0000      0.0000  0.0000  0.0000  0.0000  0.0000  0.0000  0.0000  0.0000  0.0000  0.0000
  o =  0.9078  v = -0.7168 -0.0000 -0.0000  0.6973  0.0000  0.0000  0.0000  0.0000  0.0000  0.0000      0.0000  0.0000  0.0000  0.0000  0.0000  0.0000  0.0000  0.0000  0.0000  0.0000
  o =  0.9078  v =  0.0000 -0.6973  0.0000 -0.0000  0.7168  0.0000  0.0000  0.0000  0.0000  0.0000      0.0000  0.0000  0.0000  0.0000  0.0000  0.0000  0.0000  0.0000  0.0000  0.0000
atom =   5  type =  2  l = 2
 
 onsite density matrix
 
spin component  1
 
  0.8863  0.0000 -0.0000 -0.0221  0.0000
  0.0000  0.8851 -0.0000  0.0000 -0.0221
 -0.0000 -0.0000  0.9058  0.0000  0.0000
 -0.0221  0.0000  0.0000  0.8851  0.0000
  0.0000 -0.0221  0.0000  0.0000  0.8863
 
spin component  2
 
  0.5739  0.0000 -0.0000 -0.1042  0.0000
  0.0000  0.4572 -0.0000 -0.0000 -0.1042
 -0.0000 -0.0000  0.6332 -0.0000  0.0000
 -0.1042 -0.0000 -0.0000  0.4572  0.0000
  0.0000 -0.1042  0.0000  0.0000  0.5739
 
 occupancies and eigenvectors
 
  o =  0.3961  v =  0.0000  0.0000  0.0000  0.0000  0.0000 -0.0001 -0.8627  0.0000 -0.0002 -0.5057      0.0000  0.0000  0.0000  0.0000  0.0000  0.0000  0.0000  0.0000  0.0000  0.0000
  o =  0.3961  v =  0.0000  0.0000  0.0000  0.0000  0.0000  0.5057 -0.0002  0.0000  0.8627 -0.0001      0.0000  0.0000  0.0000  0.0000  0.0000  0.0000  0.0000  0.0000  0.0000  0.0000
  o =  0.6332  v =  0.0000  0.0000  0.0000  0.0000  0.0000  0.0000 -0.0000 -1.0000 -0.0000  0.0000      0.0000  0.0000  0.0000  0.0000  0.0000  0.0000  0.0000  0.0000  0.0000  0.0000
  o =  0.6350  v =  0.0000  0.0000  0.0000  0.0000  0.0000  0.8627 -0.0000  0.0000 -0.5057  0.0000      0.0000  0.0000  0.0000  0.0000  0.0000  0.0000  0.0000  0.0000  0.0000  0.0000
  o =  0.6350  v =  0.0000  0.0000  0.0000  0.0000  0.0000 -0.0000 -0.5057  0.0000  0.0000  0.8627      0.0000  0.0000  0.0000  0.0000  0.0000  0.0000  0.0000  0.0000  0.0000  0.0000
  o =  0.8635  v =  0.6973  0.0000 -0.0000  0.7168  0.0000  0.0000  0.0000  0.0000  0.0000  0.0000      0.0000  0.0000  0.0000  0.0000  0.0000  0.0000  0.0000  0.0000  0.0000  0.0000
  o =  0.8635  v = -0.0000  0.7168 -0.0000 -0.0000  0.6973  0.0000  0.0000  0.0000  0.0000  0.0000      0.0000  0.0000  0.0000  0.0000  0.0000  0.0000  0.0000  0.0000  0.0000  0.0000
  o =  0.9058  v =  0.0000  0.0000  1.0000 -0.0000 -0.0000  0.0000  0.0000  0.0000  0.0000  0.0000      0.0000  0.0000  0.0000  0.0000  0.0000  0.0000  0.0000  0.0000  0.0000  0.0000
  o =  0.9078  v =  0.7168 -0.0000  0.0000 -0.6973  0.0000  0.0000  0.0000  0.0000  0.0000  0.0000      0.0000  0.0000  0.0000  0.0000  0.0000  0.0000  0.0000  0.0000  0.0000  0.0000
  o =  0.9078  v = -0.0000 -0.6973  0.0000  0.0000  0.7168  0.0000  0.0000  0.0000  0.0000  0.0000      0.0000  0.0000  0.0000  0.0000  0.0000  0.0000  0.0000  0.0000  0.0000  0.0000
atom =   6  type =  2  l = 2
 
 onsite density matrix
 
spin component  1
 
  0.8863  0.0000 -0.0000 -0.0221 -0.0000
  0.0000  0.8851 -0.0000  0.0000 -0.0221
 -0.0000 -0.0000  0.9058  0.0000  0.0000
 -0.0221  0.0000  0.0000  0.8851  0.0000
 -0.0000 -0.0221  0.0000  0.0000  0.8863
 
spin component  2
 
  0.5739 -0.0000 -0.0000 -0.1042 -0.0000
 -0.0000  0.4572 -0.0000  0.0000 -0.1042
 -0.0000 -0.0000  0.6332 -0.0000  0.0000
 -0.1042  0.0000 -0.0000  0.4572  0.0000
 -0.0000 -0.1042  0.0000  0.0000  0.5739
 
 occupancies and eigenvectors
 
  o =  0.3961  v =  0.0000  0.0000  0.0000  0.0000  0.0000  0.0002  0.8627 -0.0000  0.0004  0.5057      0.0000  0.0000  0.0000  0.0000  0.0000  0.0000  0.0000  0.0000  0.0000  0.0000
  o =  0.3961  v =  0.0000  0.0000  0.0000  0.0000  0.0000 -0.5057  0.0004 -0.0000 -0.8627  0.0002      0.0000  0.0000  0.0000  0.0000  0.0000  0.0000  0.0000  0.0000  0.0000  0.0000
  o =  0.6332  v =  0.0000  0.0000  0.0000  0.0000  0.0000  0.0000 -0.0000 -1.0000 -0.0000  0.0000      0.0000  0.0000  0.0000  0.0000  0.0000  0.0000  0.0000  0.0000  0.0000  0.0000
  o =  0.6350  v =  0.0000  0.0000  0.0000  0.0000  0.0000  0.8627 -0.0000  0.0000 -0.5057  0.0000      0.0000  0.0000  0.0000  0.0000  0.0000  0.0000  0.0000  0.0000  0.0000  0.0000
  o =  0.6350  v =  0.0000  0.0000  0.0000  0.0000  0.0000 -0.0000 -0.5057  0.0000  0.0000  0.8627      0.0000  0.0000  0.0000  0.0000  0.0000  0.0000  0.0000  0.0000  0.0000  0.0000
  o =  0.8635  v =  0.6973 -0.0000  0.0000  0.7168 -0.0000  0.0000  0.0000  0.0000  0.0000  0.0000      0.0000  0.0000  0.0000  0.0000  0.0000  0.0000  0.0000  0.0000  0.0000  0.0000
  o =  0.8635  v = -0.0000 -0.7168  0.0000 -0.0000 -0.6973  0.0000  0.0000  0.0000  0.0000  0.0000      0.0000  0.0000  0.0000  0.0000  0.0000  0.0000  0.0000  0.0000  0.0000  0.0000
  o =  0.9058  v = -0.0000 -0.0000 -1.0000  0.0000  0.0000  0.0000  0.0000  0.0000  0.0000  0.0000      0.0000  0.0000  0.0000  0.0000  0.0000  0.0000  0.0000  0.0000  0.0000  0.0000
  o =  0.9078  v =  0.7168  0.0000 -0.0000 -0.6973 -0.0000  0.0000  0.0000  0.0000  0.0000  0.0000      0.0000  0.0000  0.0000  0.0000  0.0000  0.0000  0.0000  0.0000  0.0000  0.0000
  o =  0.9078  v =  0.0000 -0.6973  0.0000 -0.0000  0.7168  0.0000  0.0000  0.0000  0.0000  0.0000      0.0000  0.0000  0.0000  0.0000  0.0000  0.0000  0.0000  0.0000  0.0000  0.0000
atom =   7  type =  3  l = 0
 
 onsite density matrix
 
spin component  1
 
  0.7889
 
spin component  2
 
  0.8341
 
 occupancies and eigenvectors
 
  o =  0.7889  v =  1.0000  0.0000      0.0000  0.0000
  o =  0.8341  v =  0.0000  1.0000      0.0000  0.0000
atom =   8  type =  3  l = 0
 
 onsite density matrix
 
spin component  1
 
  0.7889
 
spin component  2
 
  0.8341
 
 occupancies and eigenvectors
 
  o =  0.7889  v =  1.0000  0.0000      0.0000  0.0000
  o =  0.8341  v =  0.0000  1.0000      0.0000  0.0000
atom =   9  type =  3  l = 0
 
 onsite density matrix
 
spin component  1
 
  0.7889
 
spin component  2
 
  0.8341
 
 occupancies and eigenvectors
 
  o =  0.7889  v =  1.0000  0.0000      0.0000  0.0000
  o =  0.8341  v =  0.0000  1.0000      0.0000  0.0000
atom =  10  type =  3  l = 0
 
 onsite density matrix
 
spin component  1
 
  0.7889
 
spin component  2
 
  0.8341
 
 occupancies and eigenvectors
 
  o =  0.7889  v =  1.0000  0.0000      0.0000  0.0000
  o =  0.8341  v =  0.0000  1.0000      0.0000  0.0000
atom =  11  type =  3  l = 0
 
 onsite density matrix
 
spin component  1
 
  0.7889
 
spin component  2
 
  0.8341
 
 occupancies and eigenvectors
 
  o =  0.7889  v =  1.0000  0.0000      0.0000  0.0000
  o =  0.8341  v =  0.0000  1.0000      0.0000  0.0000
atom =  12  type =  3  l = 0
 
 onsite density matrix
 
spin component  1
 
  0.7889
 
spin component  2
 
  0.8341
 
 occupancies and eigenvectors
 
  o =  0.7889  v =  1.0000  0.0000      0.0000  0.0000
  o =  0.8341  v =  0.0000  1.0000      0.0000  0.0000
    EDDIAG:  cpu time    0.1818: real time    0.1836
  RMM-DIIS:  cpu time    0.6254: real time    0.6330
    ORTHCH:  cpu time    0.0248: real time    0.0250
 BZINTS: Fermi energy:  5.592535; 72.000000 electrons
         Band energy:-231.177915;  BLOECHL correction: -0.055738
       DOS:  cpu time    0.0122: real time    0.0123
    CHARGE:  cpu time    0.0332: real time    0.0334
    MIXING:  cpu time    0.0005: real time    0.0005
    --------------------------------------------
      LOOP:  cpu time    1.3314: real time    1.3516

 eigenvalue-minimisations  :  3900
 total energy-change (2. order) : 0.3872117E+02  (-0.1830629E+01)
 number of electron      71.9999990 magnetization       7.2953559
 augmentation part       21.4336766 magnetization       5.0261331

 Broyden mixing:
  rms(total) = 0.16960E+01    rms(broyden)= 0.16957E+01
  rms(prec ) = 0.17459E+01
  weight for this iteration     100.00

 eigenvalues of (default mixing * dielectric matrix)
  average eigenvalue GAMMA=   0.6653
  1.0507  0.2799

 Free energy of the ion-electron system (eV)
  ---------------------------------------------------
  alpha Z        PSCENC =       226.35407902
  Ewald energy   TEWEN  =     -4702.04902416
  -Hartree energ DENC   =     -1075.82777759
  -exchange      EXHF   =         0.00000000
  -V(xc)+E(xc)   XCENC  =       257.82696427
  PAW double counting   =      4993.76700142    -5173.57752257
  entropy T*S    EENTRO =         0.00000000
  eigenvalues    EBANDS =      -231.17791452
  atomic energy  EATOM  =      5642.55902661
  Solvation  Ediel_sol  =         0.00000000
  ---------------------------------------------------
  free energy    TOTEN  =       -62.12516754 eV

  energy without entropy =      -62.12516754  energy(sigma->0) =      -62.12516754


--------------------------------------------------------------------------------------------------------




--------------------------------------- Iteration      1(   8)  ---------------------------------------


    POTLOK:  cpu time    0.0273: real time    0.0281
    SETDIJ:  cpu time    0.4274: real time    0.4299
atom =   1  type =  1  l = 0
 
 onsite density matrix
 
spin component  1
 
  1.0898
 
spin component  2
 
  0.9521
 
 occupancies and eigenvectors
 
  o =  0.9521  v =  0.0000  1.0000      0.0000  0.0000
  o =  1.0898  v =  1.0000  0.0000      0.0000  0.0000
atom =   2  type =  1  l = 0
 
 onsite density matrix
 
spin component  1
 
  1.0898
 
spin component  2
 
  0.9521
 
 occupancies and eigenvectors
 
  o =  0.9521  v =  0.0000  1.0000      0.0000  0.0000
  o =  1.0898  v =  1.0000  0.0000      0.0000  0.0000
atom =   3  type =  1  l = 0
 
 onsite density matrix
 
spin component  1
 
  1.0898
 
spin component  2
 
  0.9521
 
 occupancies and eigenvectors
 
  o =  0.9521  v =  0.0000  1.0000      0.0000  0.0000
  o =  1.0898  v =  1.0000  0.0000      0.0000  0.0000
atom =   4  type =  2  l = 2
 
 onsite density matrix
 
spin component  1
 
  1.0293 -0.0000 -0.0000  0.0025 -0.0000
 -0.0000  0.9899  0.0000 -0.0000  0.0025
 -0.0000  0.0000  1.0436 -0.0000  0.0000
  0.0025 -0.0000 -0.0000  0.9899  0.0000
 -0.0000  0.0025  0.0000  0.0000  1.0293
 
spin component  2
 
  0.4096  0.0000  0.0000 -0.1483  0.0000
  0.0000  0.3385 -0.0000  0.0000 -0.1483
  0.0000 -0.0000  0.4761  0.0000  0.0000
 -0.1483  0.0000  0.0000  0.3385 -0.0000
  0.0000 -0.1483  0.0000 -0.0000  0.4096
 
 occupancies and eigenvectors
 
  o =  0.2215  v =  0.0000  0.0000  0.0000  0.0000  0.0000 -0.6193  0.0000  0.0000 -0.7852  0.0000      0.0000  0.0000  0.0000  0.0000  0.0000  0.0000  0.0000  0.0000  0.0000  0.0000
  o =  0.2215  v =  0.0000  0.0000  0.0000  0.0000  0.0000  0.0000  0.7852 -0.0000  0.0000  0.6193      0.0000  0.0000  0.0000  0.0000  0.0000  0.0000  0.0000  0.0000  0.0000  0.0000
  o =  0.4761  v =  0.0000  0.0000  0.0000  0.0000  0.0000  0.0000  0.0000  1.0000  0.0000 -0.0000      0.0000  0.0000  0.0000  0.0000  0.0000  0.0000  0.0000  0.0000  0.0000  0.0000
[...]
     34       6.8977      0.00000
     35       6.8977      0.00000
     36       6.9492      0.00000
     37       7.7245      0.00000
     38       7.7501      0.00000
     39       7.7501      0.00000
     40       7.9100      0.00000
     41       7.9100      0.00000
     42       8.2007      0.00000
     43      13.7086      0.00000
     44      14.1043      0.00000
     45      14.1043      0.00000
     46      15.8181      0.00000
     47      15.8181      0.00000
     48      16.4591      0.00000
     49      17.0590      0.00000
     50      17.0590      0.00000
     51      17.4455      0.00000
     52      17.7177      0.00000
     53      17.7617      0.00000
     54      17.7617      0.00000
     55      18.0736      0.00000
     56      18.3232      0.00000
     57      18.3232      0.00000
     58      20.2562      0.00000
     59      20.2562      0.00000
     60      20.3233      0.00000
     61      20.4985      0.00000
     62      21.5624      0.00000
     63      21.5624      0.00000
     64      21.9006      0.00000
     65      21.9688      0.00000
     66      21.9688      0.00000
     67      25.8187      0.00000
     68      25.8187      0.00000
     69      25.9640      0.00000
     70      25.9640      0.00000
     71      28.1123      0.00000
     72      28.3661      0.00000
     73      28.7145      0.00000
     74      30.4247      0.00000
     75      30.4780      0.00000
     76      31.4849      0.00000
     77      31.4849      0.00000
     78      32.3313      0.00000
     79      32.3313      0.00000
     80      33.3505      0.00000

 k-point    11 :       0.3333    0.2222    0.0000
  band No.  band energies     occupation 
      1     -39.0770      1.00000
      2     -39.0770      1.00000
      3     -39.0770      1.00000
      4     -12.6065      1.00000
      5     -12.5818      1.00000
      6     -12.5451      1.00000
      7     -12.4613      1.00000
      8     -12.4208      1.00000
      9     -12.3994      1.00000
     10      -0.8996      1.00000
     11      -0.8338      1.00000
     12      -0.7510      1.00000
     13      -0.4263      1.00000
     14      -0.3440      1.00000
     15      -0.2630      1.00000
     16       0.5149      1.00000
     17       0.6164      1.00000
     18       0.6919      1.00000
     19       1.0183      1.00000
     20       1.1181      1.00000
     21       1.2676      1.00000
     22       1.7229      1.00000
     23       1.9842      1.00000
     24       2.0990      1.00000
     25       2.1342      1.00000
     26       2.2312      1.00000
     27       2.3863      1.00000
     28       3.9521      1.00000
     29       3.9857      1.00000
     30       3.9863      1.00000
     31       4.1225      1.00000
     32       4.1414      1.00000
     33       4.1479      1.00000
     34       6.7883      0.00000
     35       6.8000      0.00000
     36       6.8304      0.00000
     37       7.7425      0.00000
     38       7.7617      0.00000
     39       7.8244      0.00000
     40       7.9358      0.00000
     41       8.0527      0.00000
     42       8.1372      0.00000
     43      14.0673      0.00000
     44      14.4737      0.00000
     45      14.7405      0.00000
     46      15.9066      0.00000
     47      16.1475      0.00000
     48      16.2051      0.00000
     49      16.9719      0.00000
     50      17.0741      0.00000
     51      17.4259      0.00000
     52      17.4430      0.00000
     53      17.4532      0.00000
     54      17.5174      0.00000
     55      17.9998      0.00000
     56      18.3529      0.00000
     57      18.5160      0.00000
     58      19.7847      0.00000
     59      19.8897      0.00000
     60      19.9241      0.00000
     61      20.4421      0.00000
     62      20.9060      0.00000
     63      21.0674      0.00000
     64      21.6758      0.00000
     65      21.9011      0.00000
     66      22.5059      0.00000
     67      24.8120      0.00000
     68      26.3595      0.00000
     69      26.9950      0.00000
     70      27.3680      0.00000
     71      27.9535      0.00000
     72      28.5900      0.00000
     73      29.5109      0.00000
     74      30.3314      0.00000
     75      30.6259      0.00000
     76      30.6528      0.00000
     77      31.5650      0.00000
     78      32.4112      0.00000
     79      33.1086      0.00000
     80      33.8755      0.00000

 k-point    12 :       0.3333    0.3333    0.0000
  band No.  band energies     occupation 
      1     -39.0755      1.00000
      2     -39.0755      1.00000
      3     -39.0755      1.00000
      4     -12.4543      1.00000
      5     -12.4543      1.00000
      6     -12.4543      1.00000
      7     -12.4542      1.00000
      8     -12.4542      1.00000
      9     -12.4542      1.00000
     10      -0.4708      1.00000
     11      -0.4708      1.00000
     12      -0.4708      1.00000
     13      -0.4453      1.00000
     14      -0.4453      1.00000
     15      -0.4453      1.00000
     16      -0.0108      1.00000
     17      -0.0108      1.00000
     18      -0.0108      1.00000
     19       1.1592      1.00000
     20       1.1592      1.00000
     21       1.1592      1.00000
     22       1.9641      1.00000
     23       1.9641      1.00000
     24       1.9641      1.00000
     25       2.1621      1.00000
     26       2.1621      1.00000
     27       2.1621      1.00000
     28       4.0904      1.00000
     29       4.0904      1.00000
     30       4.0904      1.00000
     31       4.1234      1.00000
     32       4.1234      1.00000
     33       4.1234      1.00000
     34       6.7596      0.00000
     35       6.7596      0.00000
     36       6.7596      0.00000
     37       7.8877      0.00000
     38       7.8877      0.00000
     39       7.8877      0.00000
     40       7.8970      0.00000
     41       7.8970      0.00000
     42       7.8970      0.00000
     43      15.1726      0.00000
     44      15.1726      0.00000
     45      15.1726      0.00000
     46      15.3432      0.00000
     47      15.3432      0.00000
     48      15.3432      0.00000
     49      17.5900      0.00000
     50      17.5900      0.00000
     51      17.5900      0.00000
     52      17.6011      0.00000
     53      17.6011      0.00000
     54      17.6011      0.00000
     55      18.1926      0.00000
     56      18.1926      0.00000
     57      18.1926      0.00000
     58      19.6209      0.00000
     59      19.6209      0.00000
     60      19.6209      0.00000
     61      20.3816      0.00000
     62      20.3816      0.00000
     63      20.3816      0.00000
     64      22.2830      0.00000
     65      22.2830      0.00000
     66      22.2830      0.00000
     67      26.2810      0.00000
     68      26.2810      0.00000
     69      26.2810      0.00000
     70      28.2598      0.00000
     71      28.2598      0.00000
     72      28.2598      0.00000
     73      29.3892      0.00000
     74      29.3892      0.00000
     75      29.3892      0.00000
     76      31.7117      0.00000
     77      31.7117      0.00000
     78      31.7117      0.00000
     79      34.0015      0.00000
     80      34.0015      0.00000


--------------------------------------------------------------------------------------------------------


 soft charge-density along one line, spin component           1
         0         1         2         3         4         5         6         7         8         9
 total charge-density along one line
 
 soft charge-density along one line, spin component           2
         0         1         2         3         4         5         6         7         8         9
 total charge-density along one line
 
 pseudopotential strength for first ion, spin component:           1
-37.093   3.922  -0.000  -0.000  -0.000
  3.922 -10.360  -0.000  -0.000  -0.000
 -0.000  -0.000   0.179   0.000  -0.000
 -0.000  -0.000   0.000   0.178  -0.000
 -0.000  -0.000  -0.000  -0.000   0.179
 pseudopotential strength for first ion, spin component:           2
-37.086   3.927  -0.000  -0.000  -0.000
  3.927 -10.365  -0.000  -0.000  -0.000
 -0.000  -0.000   0.184   0.000  -0.000
 -0.000  -0.000   0.000   0.184  -0.000
 -0.000  -0.000  -0.000  -0.000   0.184
 total augmentation occupancy for first ion, spin component:           1
  2.000  -0.007   0.000   0.000   0.000
 -0.007   0.633   0.000   0.000   0.000
 -0.000  -0.000   0.022   0.000  -0.000
  0.000   0.000   0.000   0.024   0.000
 -0.000   0.000  -0.000   0.000   0.022
 total augmentation occupancy for first ion, spin component:           2
 -0.000  -0.000   0.000   0.000   0.000
 -0.000   0.043   0.000   0.000   0.000
  0.000   0.000   0.001   0.000  -0.000
  0.000   0.000   0.000   0.002   0.000
  0.000   0.000   0.000  -0.000   0.001


------------------------ aborting loop because EDIFF is reached ----------------------------------------


 


 total charge     
 
# of ion       s       p       d       tot
------------------------------------------
    1        2.016   0.048   0.000   2.064
    2        2.016   0.048   0.000   2.064
    3        2.016   0.048   0.000   2.064
    4        0.380   0.544   7.129   8.053
    5        0.380   0.544   7.129   8.053
    6        0.380   0.544   7.129   8.054
    7        1.569   3.423   0.000   4.992
    8        1.569   3.423   0.000   4.992
    9        1.569   3.423   0.000   4.992
   10        1.569   3.423   0.000   4.992
   11        1.569   3.423   0.000   4.992
   12        1.569   3.423   0.000   4.992
--------------------------------------------------
tot         16.602  22.316  21.386  60.304
 


 magnetization (x)
 
# of ion       s       p       d       tot
------------------------------------------
    1        0.002   0.003   0.000   0.005
    2        0.002   0.003   0.000   0.005
    3        0.002   0.003   0.000   0.005
    4        0.016   0.017   2.104   2.137
    5        0.016   0.017   2.104   2.137
    6        0.016   0.017   2.105   2.137
    7        0.009  -0.083   0.000  -0.074
    8        0.009  -0.083   0.000  -0.074
    9        0.009  -0.083   0.000  -0.074
   10        0.009  -0.083   0.000  -0.074
   11        0.009  -0.083   0.000  -0.074
   12        0.009  -0.083   0.000  -0.074
--------------------------------------------------
tot          0.107  -0.438   6.313   5.982
 
    CHARGE:  cpu time    0.0300: real time    0.0302
    FORLOC:  cpu time    0.0009: real time    0.0009
    FORNL :  cpu time    0.3033: real time    0.3060
    STRESS:  cpu time    0.8972: real time    0.9053
    FORCOR:  cpu time    0.0166: real time    0.0166
    FORHAR:  cpu time    0.0027: real time    0.0027
    MIXING:  cpu time    0.0003: real time    0.0003
    OFIELD:  cpu time    0.0000: real time    0.0000

  FORCE on cell =-STRESS in cart. coord.  units (eV):
  Direction    XX          YY          ZZ          XY          YZ          ZX
  --------------------------------------------------------------------------------------
  Alpha Z   206.65943   206.65943   206.65943
  Ewald   -1108.98228 -1108.98228 -2077.94169    -0.00000     0.00000    -0.00000
  Hartree   701.79298   701.79298   -15.37369    -0.00000     0.00000    -0.00000
  E(xc)    -359.87367  -359.87370  -359.06975    -0.00003     0.00000    -0.00000
  Local    -934.93351  -934.93350   763.66548     0.00000    -0.00000     0.00000
  n-local  -198.65013  -200.20702  -200.58871     4.18424     0.75297     5.81070
  augment   569.72649   569.72648   550.60711    -0.00001    -0.00000     0.00001
  Kinetic  1126.19385  1123.78502  1131.89444    -5.20763     2.20167    -4.59106
  Fock        0.00000     0.00000     0.00000     0.00000     0.00000     0.00000
  -------------------------------------------------------------------------------------
  Total      -0.04971    -0.04971    -0.14740     0.00000    -0.00000     0.00000
  in kB      -0.75407    -0.75407    -2.23586     0.00000    -0.00000     0.00000
  external pressure =       -1.25 kB  Pullay stress =        0.00 kB


 VOLUME and BASIS-vectors are now :
 -----------------------------------------------------------------------------
  energy-cutoff  :      520.00
  volume of cell :      105.62
      direct lattice vectors                 reciprocal lattice vectors
     2.913112863 -0.000000000  0.000000000     0.343275406  0.198190148 -0.000000000
    -1.456556431  2.522829743 -0.000000000     0.000000000  0.396380296 -0.000000000
     0.000000000  0.000000000 14.371874602    -0.000000000 -0.000000000  0.069580345

  length of vectors
     2.913112863  2.913112863 14.371874602     0.396380296  0.396380296  0.069580345


 FORCES acting on ions
    electron-ion (+dipol)            ewald-force                    non-local-force                 convergence-correction
 -----------------------------------------------------------------------------------------------
   -.515E-14 0.459E-14 -.906E-13   0.578E-14 -.563E-14 0.142E-13   0.532E-23 0.395E-22 0.105E-21   -.541E-13 -.572E-13 -.158E-11
   0.374E-11 -.180E-11 -.775E-11   0.338E-11 -.196E-11 -.371E-10   0.617E-23 0.333E-22 -.120E-21   0.106E-13 0.548E-13 0.498E-12
   -.378E-11 0.248E-11 0.777E-11   -.337E-11 0.195E-11 0.372E-10   0.512E-22 0.765E-23 -.635E-22   0.764E-13 0.104E-12 0.989E-12
   -.967E-14 0.525E-13 0.225E-11   -.206E-13 -.195E-13 -.739E-12   0.183E-20 -.283E-21 0.104E-20   0.317E-12 0.474E-12 0.517E-11
   -.200E-11 0.212E-11 0.148E-11   0.149E-10 -.854E-11 -.417E-10   0.109E-20 -.226E-21 0.433E-21   -.121E-13 0.833E-13 -.233E-11
   0.303E-11 -.630E-13 -.816E-11   -.148E-10 0.851E-11 0.424E-10   -.207E-20 0.119E-20 -.194E-20   -.108E-12 -.120E-12 -.349E-11
   -.211E-06 -.176E-06 -.209E+03   0.362E-11 0.293E-08 0.219E+03   -.231E-16 -.487E-17 -.989E+01   0.191E-07 -.110E-07 -.234E-02
   0.211E-06 0.176E-06 0.209E+03   -.362E-11 -.293E-08 -.219E+03   0.412E-18 0.258E-16 0.989E+01   -.191E-07 0.110E-07 0.234E-02
   -.211E-06 -.176E-06 -.209E+03   0.751E-11 0.292E-08 0.219E+03   -.155E-16 -.561E-16 -.989E+01   0.191E-07 -.110E-07 -.234E-02
   0.211E-06 0.176E-06 0.209E+03   0.111E-10 -.293E-08 -.219E+03   0.304E-16 0.286E-16 0.989E+01   -.191E-07 0.110E-07 0.234E-02
   -.211E-06 -.176E-06 -.209E+03   -.111E-10 0.293E-08 0.219E+03   -.156E-16 -.541E-16 -.989E+01   0.191E-07 -.110E-07 -.234E-02
   0.211E-06 0.176E-06 0.209E+03   -.748E-11 -.292E-08 -.219E+03   0.139E-16 0.265E-16 0.989E+01   -.191E-07 0.110E-07 0.234E-02
 -----------------------------------------------------------------------------------------------
   0.577E-12 0.458E-11 -.187E-10   0.294E-13 0.541E-14 -.199E-12   -.949E-17 -.341E-16 -.533E-14   -.136E-12 -.371E-12 -.135E-11
 
 
 POSITION                                       TOTAL-FORCE (eV/Angst)
 -----------------------------------------------------------------------------------
     -0.00000     -0.00000     -0.00000        -0.000000      0.000000      0.000000
      1.45656      0.84094      4.79062        -0.000000      0.000000      0.000000
      0.00000      1.68189      9.58125        -0.000000      0.000000      0.000000
      0.00000      0.00000      7.18594        -0.000000      0.000000      0.000000
      1.45656      0.84094     11.97656        -0.000000      0.000000      0.000000
      0.00000      1.68189      2.39531        -0.000000      0.000000      0.000000
      0.00000      0.00000      3.47128         0.000000      0.000000      0.015135
      0.00000      0.00000     10.90059        -0.000000     -0.000000     -0.015135
      1.45656      0.84094      8.26191         0.000000      0.000000      0.015135
      1.45656      0.84094      1.31934        -0.000000     -0.000000     -0.015135
      0.00000      1.68189     13.05253         0.000000      0.000000      0.015135
      0.00000      1.68189      6.10997        -0.000000     -0.000000     -0.015135
 -----------------------------------------------------------------------------------
    total drift:                                0.000000      0.000000     -0.000000


--------------------------------------------------------------------------------------------------------



  FREE ENERGIE OF THE ION-ELECTRON SYSTEM (eV)
  ---------------------------------------------------
  free  energy   TOTEN  =       -67.13247336 eV

  energy  without entropy=      -67.13247336  energy(sigma->0) =      -67.13247336
 
 d Force = 0.1286550E-04[ 0.117E-04, 0.140E-04]  d Energy = 0.2785869E-05 0.101E-04
 d Force = 0.1695040E+00[ 0.170E+00, 0.170E+00]  d Ewald  = 0.1036480E+00 0.659E-01


--------------------------------------------------------------------------------------------------------


    POTLOK:  cpu time    0.4575: real time    0.4596


--------------------------------------------------------------------------------------------------------


 stress matrix after NEB project (eV)
     -0.04971     -0.00000      0.00000
      0.00000     -0.04971     -0.00000
      0.00000     -0.00000     -0.14740
  FORCES: max atom, RMS     0.015135    0.010702
  FORCE total and by dimension    0.037073    0.015135
  Stress total and by dimension    0.163306    0.147398


--------------------------------------------------------------------------------------------------------


  
 reached required accuracy - stopping structural energy minimisation
     LOOP+:  cpu time    5.5277: real time    5.5885
    4ORBIT:  cpu time    0.0000: real time    0.0000
 


 total charge     
 
# of ion       s       p       d       tot
------------------------------------------
    1        2.016   0.048   0.000   2.064
    2        2.016   0.048   0.000   2.064
    3        2.016   0.048   0.000   2.064
    4        0.380   0.544   7.129   8.053
    5        0.380   0.544   7.129   8.053
    6        0.380   0.544   7.129   8.054
    7        1.569   3.423   0.000   4.992
    8        1.569   3.423   0.000   4.992
    9        1.569   3.423   0.000   4.992
   10        1.569   3.423   0.000   4.992
   11        1.569   3.423   0.000   4.992
   12        1.569   3.423   0.000   4.992
--------------------------------------------------
tot         16.602  22.316  21.386  60.304
 


 magnetization (x)
 
# of ion       s       p       d       tot
------------------------------------------
    1        0.002   0.003   0.000   0.005
    2        0.002   0.003   0.000   0.005
    3        0.002   0.003   0.000   0.005
    4        0.016   0.017   2.104   2.137
    5        0.016   0.017   2.104   2.137
    6        0.016   0.017   2.105   2.137
    7        0.009  -0.083   0.000  -0.074
    8        0.009  -0.083   0.000  -0.074
    9        0.009  -0.083   0.000  -0.074
   10        0.009  -0.083   0.000  -0.074
   11        0.009  -0.083   0.000  -0.074
   12        0.009  -0.083   0.000  -0.074
--------------------------------------------------
tot          0.107  -0.438   6.313   5.982
 
 BZINTS: Fermi energy:  5.071411; 72.000000 electrons
         Band energy:-301.721974;  BLOECHL correction: -0.036465

 total amount of memory used by VASP MPI-rank0    47704. kBytes
=======================================================================

   base      :      30000. kBytes
   nonlr-proj:       7490. kBytes
   fftplans  :        889. kBytes
   grid      :       6833. kBytes
   one-center:        373. kBytes
   wavefun   :       2119. kBytes
 
  
  
 General timing and accounting informations for this job:
 ========================================================
  
                  Total CPU time used (sec):      155.229
                            User time (sec):      154.044
                          System time (sec):        1.185
                         Elapsed time (sec):      158.249
  
                   Maximum memory used (kb):      301528.
                   Average memory used (kb):           0.
  
                          Minor page faults:       116303
                          Major page faults:           37
                 Voluntary context switches:         1822
