<?xml version="1.0" encoding="ISO-8859-1"?>
<modeling>
 <generator>
  <i name="program" type="string">vasp </i>
  <i name="version" type="string">5.4.4.18Apr17-6-g9f103f2a35  </i>
  <i name="subversion" type="string">(build Jun 15 2022 16:00:52) complex            parallel </i>
  <i name="platform" type="string">LinuxIFC </i>
  <i name="date" type="string">2025 09 11 </i>
  <i name="time" type="string">18:41:08 </i>
 </generator>
 <incar>
  <i type="string" name="PREC">accurate</i>
  <i type="string" name="ALGO"> Fast</i>
  <i type="int" name="ISPIN">     2</i>
  <i type="int" name="NELM">   100</i>
  <i type="int" name="IBRION">     2</i>
  <i name="EDIFF">      0.00010000</i>
  <i type="int" name="NSW">    99</i>
  <i type="int" name="ISIF">     3</i>
  <i name="ENCUT">    520.00000000</i>
  <v name="MAGMOM">      0.60000000      0.60000000      0.60000000      0.60000000      0.60000000      0.60000000      0.60000000      0.60000000      0.60000000      0.60000000      0.60000000      0.60000000</v>
  <i type="string" name="LREAL"> Auto</i>
  <i type="int" name="ISMEAR">    -5</i>
  <i name="SIGMA">      0.05000000</i>
  <i type="int" name="LMAXMIX">     4</i>
  <i type="logical" name="LWAVE"> F  </i>
  <i type="int" name="LORBIT">    11</i>
  <i type="logical" name="LASPH"> T  </i>
  <v type="int" name="KPOINT_BSE">    -1     0     0     0</v>
  <i type="int" name="NELM">   100</i>
  <i type="logical" name="LDAU"> T  </i>
  <v type="int" name="LDAUTYPE">     2</v>
  <v type="int" name="LDAUL">     0     2     0</v>
  <v name="LDAUU">      0.00000000      3.32000000      0.00000000</v>
  <v name="LDAUJ">      0.00000000      0.00000000      0.00000000</v>
  <i type="int" name="LDAUPRINT">     1</i>
  <i type="logical" name="LASPH"> T  </i>
 </incar>
 <structure name="primitive_cell" >
  <crystal>
   <varray name="basis" >
    <v>       1.40750000       0.81262050       4.68400000 </v>
    <v>      -1.40750000       0.81262050       4.68400000 </v>
    <v>      -0.00000000      -1.62524101       4.68400000 </v>
   </varray>
   <i name="volume">     32.14432545 </i>
   <varray name="rec_basis" >
    <v>       0.35523979       0.20509779       0.07116425 </v>
    <v>      -0.35523979       0.20509779       0.07116425 </v>
    <v>      -0.00000000      -0.41019557       0.07116425 </v>
   </varray>
  </crystal>
  <varray name="positions" >
   <v>       0.00000000       0.00000000       0.00000000 </v>
   <v>      -0.26160000      -0.26160000      -0.26160000 </v>
   <v>       0.26160000       0.26160000       0.26160000 </v>
   <v>      -0.50000000      -0.50000000      -0.50000000 </v>
  </varray>
 </structure>
 <varray name="primitive_index" >
  <v type="int" >        1 </v>
  <v type="int" >       10 </v>
  <v type="int" >       11 </v>
  <v type="int" >        5 </v>
 </varray>
 <kpoints>
  <generation param="Gamma">
   <v type="int" name="divisions">       9        9        1 </v>
   <v name="usershift">      0.00000000       0.00000000       0.00000000 </v>
   <v name="genvec1">      0.11111111       0.00000000       0.00000000 </v>
   <v name="genvec2">      0.00000000       0.11111111       0.00000000 </v>
   <v name="genvec3">      0.00000000       0.00000000       1.00000000 </v>
   <v name="shift">      0.00000000       0.00000000       0.00000000 </v>
  </generation>
  <varray name="kpointlist" >
   <v>       0.00000000       0.00000000       0.00000000 </v>
   <v>       0.11111111      -0.00000000       0.00000000 </v>
   <v>       0.22222222      -0.00000000       0.00000000 </v>
   <v>       0.33333333       0.00000000       0.00000000 </v>
   <v>       0.44444444      -0.00000000       0.00000000 </v>
   <v>       0.11111111       0.11111111       0.00000000 </v>
   <v>       0.22222222       0.11111111       0.00000000 </v>
   <v>       0.33333333       0.11111111       0.00000000 </v>
   <v>       0.44444444       0.11111111       0.00000000 </v>
   <v>       0.22222222       0.22222222       0.00000000 </v>
   <v>       0.33333333       0.22222222       0.00000000 </v>
   <v>       0.33333333       0.33333333       0.00000000 </v>
  </varray>
  <varray name="weights" >
   <v>       0.01234568 </v>
   <v>       0.07407407 </v>
   <v>       0.07407407 </v>
   <v>       0.07407407 </v>
   <v>       0.07407407 </v>
   <v>       0.07407407 </v>
   <v>       0.14814815 </v>
   <v>       0.14814815 </v>
   <v>       0.07407407 </v>
   <v>       0.07407407 </v>
   <v>       0.14814815 </v>
   <v>       0.02469136 </v>
  </varray>
  <varray name="tetrahedronlist"  type="int" >
   <v type="int" >       12        2        2        2        6 </v>
   <v type="int" >       12        1        2        2        2 </v>
   <v type="int" >        6        1        1        2        2 </v>
   <v type="int" >        6        2        2        6        6 </v>
   <v type="int" >       12        3        6        6        7 </v>
   <v type="int" >       12        2        3        6        6 </v>
   <v type="int" >       12        2        2        3        6 </v>
   <v type="int" >       12        3        6        7        7 </v>
   <v type="int" >       12        3        3        6        7 </v>
   <v type="int" >       12        2        3        3        6 </v>
   <v type="int" >       12        4        7        7        8 </v>
   <v type="int" >       12        3        4        7        7 </v>
   <v type="int" >       12        3        3        4        7 </v>
   <v type="int" >       12        4        7        8        8 </v>
   <v type="int" >       12        4        4        7        8 </v>
   <v type="int" >       12        3        4        4        7 </v>
   <v type="int" >       12        5        8        8        9 </v>
   <v type="int" >       12        4        5        8        8 </v>
   <v type="int" >       12        4        4        5        8 </v>
   <v type="int" >       12        5        8        9        9 </v>
   <v type="int" >       12        5        5        8        9 </v>
   <v type="int" >       12        4        5        5        8 </v>
   <v type="int" >        6        5        5        9        9 </v>
   <v type="int" >       12        5        5        5        9 </v>
   <v type="int" >       12        7        7        7       10 </v>
   <v type="int" >       12        6        7        7        7 </v>
   <v type="int" >        6        6        6        7        7 </v>
   <v type="int" >        6        7        7       10       10 </v>
   <v type="int" >       12        8       10       10       11 </v>
   <v type="int" >       12        7        8       10       10 </v>
   <v type="int" >       12        7        7        8       10 </v>
   <v type="int" >       12        8       10       11       11 </v>
   <v type="int" >       12        8        8       10       11 </v>
   <v type="int" >       12        7        8        8       10 </v>
   <v type="int" >       12        9       11       11       11 </v>
   <v type="int" >       12        8        9       11       11 </v>
   <v type="int" >       12        8        8        9       11 </v>
   <v type="int" >        6        9        9       11       11 </v>
   <v type="int" >       12        8        9        9       11 </v>
   <v type="int" >       24       11       11       11       12 </v>
   <v type="int" >       12       10       11       11       11 </v>
   <v type="int" >        6       10       10       11       11 </v>
   <v type="int" >       12       11       11       12       12 </v>
  </varray>
  <i name="volumeweight">      0.00205761 </i>
 </kpoints>
 <parameters>
  <separator name="general" >
   <i type="string" name="SYSTEM">unknown system</i>
   <i type="logical" name="LCOMPAT"> F  </i>
  </separator>
  <separator name="electronic" >
   <i type="string" name="PREC">accura</i>
   <i name="ENMAX">    520.00000000</i>
   <i name="ENAUG">    628.94500000</i>
   <i name="EDIFF">      0.00010000</i>
   <i type="int" name="IALGO">    68</i>
   <i type="int" name="IWAVPR">    11</i>
   <i type="int" name="NBANDS">    80</i>
   <i name="NELECT">     72.00000000</i>
   <i type="int" name="TURBO">     0</i>
   <i type="int" name="IRESTART">     0</i>
   <i type="int" name="NREBOOT">     0</i>
   <i type="int" name="NMIN">     0</i>
   <i name="EREF">      0.00000000</i>
   <separator name="electronic smearing" >
    <i type="int" name="ISMEAR">    -5</i>
    <i name="SIGMA">      0.05000000</i>
    <i name="KSPACING">      0.50000000</i>
    <i type="logical" name="KGAMMA"> T  </i>
   </separator>
   <separator name="electronic projectors" >
    <i type="logical" name="LREAL"> T  </i>
    <v name="ROPT">     -0.00025000     -0.00025000     -0.00025000</v>
    <i type="int" name="LMAXPAW">  -100</i>
    <i type="int" name="LMAXMIX">     4</i>
    <i type="logical" name="NLSPLINE"> F  </i>
   </separator>
   <separator name="electronic startup" >
    <i type="int" name="ISTART">     0</i>
    <i type="int" name="ICHARG">     2</i>
    <i type="int" name="INIWAV">     1</i>
   </separator>
   <separator name="electronic spin" >
    <i type="int" name="ISPIN">     2</i>
    <i type="logical" name="LNONCOLLINEAR"> F  </i>
    <v name="MAGMOM">      0.60000000      0.60000000      0.60000000      0.60000000      0.60000000      0.60000000      0.60000000      0.60000000      0.60000000      0.60000000      0.60000000      0.60000000</v>
    <i name="NUPDOWN">     -1.00000000</i>
    <i type="logical" name="LSORBIT"> F  </i>
    <v name="SAXIS">      0.00000000      0.00000000      1.00000000</v>
    <i type="logical" name="LSPIRAL"> F  </i>
    <v name="QSPIRAL">      0.00000000      0.00000000      0.00000000</v>
    <i type="logical" name="LZEROZ"> F  </i>
   </separator>
   <separator name="electronic exchange-correlation" >
    <i type="logical" name="LASPH"> T  </i>
    <i type="logical" name="LMETAGGA"> F  </i>
   </separator>
   <separator name="electronic convergence" >
    <i type="int" name="NELM">   100</i>
    <i type="int" name="NELMDL">    -5</i>
    <i type="int" name="NELMIN">     2</i>
    <i name="ENINI">    520.00000000</i>
    <separator name="electronic convergence detail" >
     <i type="logical" name="LDIAG"> T  </i>
     <i type="logical" name="LSUBROT"> F  </i>
     <i name="WEIMIN">      0.00100000</i>
     <i name="EBREAK">      0.00000031</i>
     <i name="DEPER">      0.30000000</i>
     <i type="int" name="NRMM">     4</i>
     <i name="TIME">      0.40000000</i>
    </separator>
   </separator>
   <separator name="electronic mixer" >
    <i name="AMIX">      0.40000000</i>
    <i name="BMIX">      1.00000000</i>
    <i name="AMIN">      0.10000000</i>
    <i name="AMIX_MAG">      1.60000000</i>
    <i name="BMIX_MAG">      1.00000000</i>
    <separator name="electronic mixer details" >
     <i type="int" name="IMIX">     4</i>
     <i type="logical" name="MIXFIRST"> F  </i>
     <i type="int" name="MAXMIX">   -45</i>
     <i name="WC">    100.00000000</i>
     <i type="int" name="INIMIX">     1</i>
     <i type="int" name="MIXPRE">     1</i>
     <i type="int" name="MREMOVE">     5</i>
    </separator>
   </separator>
   <separator name="electronic dipolcorrection" >
    <i type="logical" name="LDIPOL"> F  </i>
    <i type="logical" name="LMONO"> F  </i>
    <i type="int" name="IDIPOL">     0</i>
    <i name="EPSILON">      1.00000000</i>
    <v name="DIPOL">   -100.00000000   -100.00000000   -100.00000000</v>
    <i name="EFIELD">      0.00000000</i>
   </separator>
  </separator>
  <separator name="grids" >
   <i type="int" name="NGX">    24</i>
   <i type="int" name="NGY">    24</i>
   <i type="int" name="NGZ">   108</i>
   <i type="int" name="NGXF">    48</i>
   <i type="int" name="NGYF">    48</i>
   <i type="int" name="NGZF">   216</i>
   <i type="logical" name="ADDGRID"> F  </i>
  </separator>
  <separator name="ionic" >
   <i type="int" name="NSW">    99</i>
   <i type="int" name="IBRION">     2</i>
   <i type="int" name="MDALGO">     0</i>
   <i type="int" name="ISIF">     3</i>
   <i name="PSTRESS">      0.00000000</i>
   <i name="EDIFFG">      0.00100000</i>
   <i type="int" name="NFREE">     1</i>
   <i name="POTIM">      0.50000000</i>
   <i name="SMASS">     -3.00000000</i>
   <i name="SCALEE">      1.00000000</i>
  </separator>
  <separator name="ionic md" >
   <i name="TEBEG">      0.00010000</i>
   <i name="TEEND">      0.00010000</i>
   <i type="int" name="NBLOCK">     1</i>
   <i type="int" name="KBLOCK">    99</i>
   <i type="int" name="NPACO">   256</i>
   <i name="APACO">     16.00000000</i>
  </separator>
  <separator name="symmetry" >
   <i type="int" name="ISYM">     2</i>
   <i name="SYMPREC">      0.00001000</i>
  </separator>
  <separator name="dos" >
   <i type="int" name="LORBIT">    11</i>
   <v name="RWIGS">     -1.00000000     -1.00000000     -1.00000000</v>
   <i type="int" name="NEDOS">   301</i>
   <i name="EMIN">     10.00000000</i>
   <i name="EMAX">    -10.00000000</i>
   <i name="EFERMI">      0.00000000</i>
  </separator>
  <separator name="writing" >
   <i type="int" name="NWRITE">     2</i>
   <i type="logical" name="LWAVE"> F  </i>
   <i type="logical" name="LDOWNSAMPLE"> F  </i>
   <i type="logical" name="LCHARG"> T  </i>
   <i type="logical" name="LPARD"> F  </i>
   <i type="logical" name="LVTOT"> F  </i>
   <i type="logical" name="LVHAR"> F  </i>
   <i type="logical" name="LELF"> F  </i>
   <i type="logical" name="LOPTICS"> F  </i>
   <v name="STM">      0.00000000      0.00000000      0.00000000      0.00000000      0.00000000      0.00000000      0.00000000</v>
  </separator>
  <separator name="performance" >
   <i type="int" name="NPAR">    40</i>
   <i type="int" name="NSIM">     4</i>
   <i type="int" name="NBLK">    -1</i>
   <i type="logical" name="LPLANE"> T  </i>
   <i type="logical" name="LSCALAPACK"> T  </i>
   <i type="logical" name="LSCAAWARE"> T  </i>
   <i type="logical" name="LSCALU"> F  </i>
   <i type="logical" name="LASYNC"> F  </i>
   <i type="logical" name="LORBITALREAL"> F  </i>
  </separator>
  <separator name="miscellaneous" >
   <i type="int" name="IDIOT">     3</i>
   <i type="int" name="ISPECIAL">     0</i>
   <i type="logical" name="LMUSIC"> F  </i>
   <v name="POMASS">      7.01000000     58.93300000     16.00000000</v>
   <v name="DARWINR">      0.00000000      0.00000000      0.00000000</v>
   <v name="DARWINV">      1.00000000      1.00000000      1.00000000</v>
   <i type="logical" name="LCORR"> T  </i>
  </separator>
  <i type="logical" name="GGA_COMPAT"> T  </i>
  <i type="logical" name="LBERRY"> F  </i>
  <i type="int" name="ICORELEVEL">     0</i>
  <i type="logical" name="LDAU"> T  </i>
  <v type="int" name="LDAUTYPE">     2</v>
  <v type="int" name="LDAUL">     0</v>
  <v name="LDAUU">      0.00000000</v>
  <v name="LDAUJ">      0.00000000</v>
  <i type="int" name="LDAUPRINT">     1</i>
  <i type="int" name="I_CONSTRAINED_M">     0</i>
  <separator name="electronic exchange-correlation" >
   <i type="string" name="GGA">--</i>
   <i type="int" name="VOSKOWN">     0</i>
   <i type="logical" name="LHFCALC"> F  </i>
   <i type="string" name="PRECFOCK"></i>
   <i type="logical" name="LSYMGRAD"> F  </i>
   <i type="logical" name="LHFONE"> F  </i>
   <i type="logical" name="LRHFCALC"> F  </i>
   <i type="logical" name="LTHOMAS"> F  </i>
   <i type="logical" name="LMODELHF"> F  </i>
   <i name="ENCUT4O">     -1.00000000</i>
   <i type="int" name="EXXOEP">     0</i>
   <i type="int" name="FOURORBIT">     0</i>
   <i name="AEXX">      0.00000000</i>
   <i name="HFALPHA">      0.00000000</i>
   <i name="MCALPHA">      0.00000000</i>
   <i name="ALDAX">      1.00000000</i>
   <i name="AGGAX">      1.00000000</i>
   <i name="ALDAC">      1.00000000</i>
   <i name="AGGAC">      1.00000000</i>
   <i type="int" name="NKREDX">     1</i>
   <i type="int" name="NKREDY">     1</i>
   <i type="int" name="NKREDZ">     1</i>
   <i type="logical" name="SHIFTRED"> F  </i>
   <i type="logical" name="ODDONLY"> F  </i>
   <i type="logical" name="EVENONLY"> F  </i>
   <i type="int" name="LMAXFOCK">     0</i>
   <i type="int" name="NMAXFOCKAE">     0</i>
   <i type="logical" name="LFOCKAEDFT"> F  </i>
   <i name="HFSCREEN">      0.00000000</i>
   <i name="HFSCREENC">      0.00000000</i>
   <i type="int" name="NBANDSGWLOW">     0</i>
  </separator>
  <separator name="vdW DFT" >
   <i type="logical" name="LUSE_VDW"> F  </i>
   <i name="Zab_VDW">     -0.84910000</i>
   <i name="PARAM1">      0.12340000</i>
   <i name="PARAM2">      1.00000000</i>
   <i name="PARAM3">      0.00000000</i>
  </separator>
  <separator name="model GW" >
   <i type="int" name="MODEL_GW">     0</i>
   <i name="MODEL_EPS0">      4.82164882</i>
   <i name="MODEL_ALPHA">      1.00000000</i>
  </separator>
  <separator name="linear response parameters" >
   <i type="logical" name="LEPSILON"> F  </i>
   <i type="logical" name="LRPA"> F  </i>
   <i type="logical" name="LNABLA"> F  </i>
   <i type="logical" name="LVEL"> F  </i>
   <i type="int" name="KINTER">     0</i>
   <i name="CSHIFT">      0.10000000</i>
   <i name="OMEGAMAX">     -1.00000000</i>
   <i name="DEG_THRESHOLD">      0.00200000</i>
   <i name="RTIME">     -0.10000000</i>
   <i name="WPLASMAI">      0.00000000</i>
   <v name="DFIELD">      0.00000000      0.00000000      0.00000000</v>
   <v name="WPLASMA">      0.00000000      0.00000000      0.00000000      0.00000000      0.00000000      0.00000000      0.00000000      0.00000000      0.00000000</v>
  </separator>
  <separator name="orbital magnetization" >
   <i type="logical" name="NUCIND"> F  </i>
   <v name="MAGPOS">      0.00000000      0.00000000      0.00000000</v>
   <i type="logical" name="LNICSALL"> T  </i>
   <i type="logical" name="ORBITALMAG"> F  </i>
   <i type="logical" name="LMAGBLOCH"> F  </i>
   <i type="logical" name="LCHIMAG"> F  </i>
   <i type="logical" name="LGAUGE"> T  </i>
   <i type="int" name="MAGATOM">     0</i>
   <v name="MAGDIPOL">      0.00000000      0.00000000      0.00000000</v>
   <v name="AVECCONST">      0.00000000      0.00000000      0.00000000</v>
  </separator>
  <separator name="response functions" >
   <i type="logical" name="LADDER"> F  </i>
   <i type="logical" name="LRPAFORCE"> F  </i>
   <i type="logical" name="LFXC"> F  </i>
   <i type="logical" name="LHARTREE"> T  </i>
   <i type="int" name="IBSE">     0</i>
   <v type="int" name="KPOINT">    -1     0     0     0</v>
   <i type="logical" name="LTCTE"> F  </i>
   <i type="logical" name="LTETE"> F  </i>
   <i type="logical" name="LTRIPLET"> F  </i>
   <i type="logical" name="LFXCEPS"> F  </i>
   <i type="logical" name="LFXHEG"> F  </i>
   <i type="int" name="NATURALO">     2</i>
   <i type="logical" name="L2ORDER"> F  </i>
   <i type="logical" name="LMP2LT"> F  </i>
   <i type="logical" name="LUSEW"> F  </i>
   <i name="ENCUTGW">     -2.00000000</i>
   <i name="ENCUTGWSOFT">     -2.00000000</i>
   <i name="ENCUTLF">     -1.00000000</i>
   <i type="int" name="LMAXMP2">    -1</i>
   <i name="SCISSOR">      0.00000000</i>
   <i type="int" name="NOMEGA">     0</i>
   <i type="int" name="NOMEGAR">     0</i>
   <i type="int" name="NBANDSGW">    -1</i>
   <i type="int" name="NBANDSO">    -1</i>
   <i type="int" name="NBANDSV">    -1</i>
   <i type="int" name="NELM">   100</i>
   <i type="int" name="NELMHF">     1</i>
   <i type="int" name="DIM">     3</i>
   <i type="int" name="ANTIRES">     0</i>
   <i name="OMEGAMAX">    -30.00000000</i>
   <i name="OMEGAMIN">    -30.00000000</i>
   <i name="OMEGATL">   -200.00000000</i>
   <i type="int" name="OMEGAGRID">   140</i>
   <i name="CSHIFT">     -0.10000000</i>
   <i type="logical" name="SELFENERGY"> F  </i>
   <i type="logical" name="LSPECTRAL"> F  </i>
   <i type="logical" name="LSPECTRALGW"> F  </i>
   <i type="logical" name="LSINGLES"> F  </i>
   <i type="logical" name="LFERMIGW"> F  </i>
   <i type="logical" name="ODDONLYGW"> F  </i>
   <i type="logical" name="EVENONLYGW"> F  </i>
   <i type="int" name="NKREDLFX">     1</i>
   <i type="int" name="NKREDLFY">     1</i>
   <i type="int" name="NKREDLFZ">     1</i>
   <i type="int" name="MAXMEM">  2800</i>
   <i type="int" name="TELESCOPE">     0</i>
   <i type="int" name="TAUPAR">     1</i>
   <i type="int" name="OMEGAPAR">    -1</i>
   <i name="LAMBDA">      1.00000000</i>
  </separator>
  <separator name="External order field" >
   <i name="OFIELD_KAPPA">      0.00000000</i>
   <v name="OFIELD_K">      0.00000000      0.00000000      0.00000000</v>
   <i name="OFIELD_Q6_NEAR">      0.00000000</i>
   <i name="OFIELD_Q6_FAR">      0.00000000</i>
   <i name="OFIELD_A">      0.00000000</i>
  </separator>
 </parameters>
 <atominfo>
  <atoms>      12 </atoms>
  <types>       3 </types>
  <array name="atoms" >
   <dimension dim="1">ion</dimension>
   <field type="string">element</field>
   <field type="int">atomtype</field>
   <set>
    <rc><c>Li</c><c>   1</c></rc>
    <rc><c>Li</c><c>   1</c></rc>
    <rc><c>Li</c><c>   1</c></rc>
    <rc><c>Co</c><c>   2</c></rc>
    <rc><c>Co</c><c>   2</c></rc>
    <rc><c>Co</c><c>   2</c></rc>
    <rc><c>O </c><c>   3</c></rc>
    <rc><c>O </c><c>   3</c></rc>
    <rc><c>O </c><c>   3</c></rc>
    <rc><c>O </c><c>   3</c></rc>
    <rc><c>O </c><c>   3</c></rc>
    <rc><c>O </c><c>   3</c></rc>
   </set>
  </array>
  <array name="atomtypes" >
   <dimension dim="1">type</dimension>
   <field type="int">atomspertype</field>
   <field type="string">element</field>
   <field>mass</field>
   <field>valence</field>
   <field type="string">pseudopotential</field>
   <set>
    <rc><c>   3</c><c>Li</c><c>      7.01000000</c><c>      3.00000000</c><c>  PAW_PBE Li_sv 10Sep2004               </c></rc>
    <rc><c>   3</c><c>Co</c><c>     58.93300000</c><c>      9.00000000</c><c>  PAW_PBE Co 02Aug2007                  </c></rc>
    <rc><c>   6</c><c>O </c><c>     16.00000000</c><c>      6.00000000</c><c>  PAW_PBE O 08Apr2002                   </c></rc>
   </set>
  </array>
 </atominfo>
 <structure name="initialpos" >
  <crystal>
   <varray name="basis" >
    <v>       2.81500000       0.00000000       0.00000000 </v>
    <v>      -1.40750000       2.43786151       0.00000000 </v>
    <v>       0.00000000       0.00000000      14.05200000 </v>
   </varray>
   <i name="volume">     96.43297634 </i>
   <varray name="rec_basis" >
    <v>       0.35523979       0.20509779       0.00000000 </v>
    <v>       0.00000000       0.41019557       0.00000000 </v>
    <v>       0.00000000       0.00000000       0.07116425 </v>
   </varray>
  </crystal>
  <varray name="positions" >
   <v>       0.00000000       0.00000000       0.00000000 </v>
   <v>       0.66666667       0.33333333       0.33333333 </v>
   <v>       0.33333333       0.66666667       0.66666667 </v>
   <v>       0.00000000       0.00000000       0.50000000 </v>
   <v>       0.66666667       0.33333333       0.83333333 </v>
   <v>       0.33333333       0.66666667       0.16666667 </v>
   <v>       0.00000000       0.00000000       0.26160000 </v>
   <v>       0.00000000       0.00000000       0.73840000 </v>
   <v>       0.66666667       0.33333333       0.59493333 </v>
   <v>       0.66666667       0.33333333       0.07173333 </v>
   <v>       0.33333333       0.66666667       0.92826667 </v>
   <v>       0.33333333       0.66666667       0.40506667 </v>
  </varray>
 </structure>
 <calculation>
  <scstep>
   <time name="dav">    1.42    1.43</time>
   <time name="total">    1.87    1.90</time>
   <energy>
    <i name="alphaZ">    226.35407902 </i>
    <i name="ewald">  -4702.04902416 </i>
    <i name="hartreedc">  -1079.91247951 </i>
    <i name="XCdc">    254.77002550 </i>
    <i name="pawpsdc">   4480.92503455 </i>
    <i name="pawaedc">  -4669.40754520 </i>
    <i name="eentropy">      0.00000000 </i>
    <i name="bandstr">    177.21010302 </i>
    <i name="atom">   5642.55902661 </i>
    <i name="e_fr_energy">    330.44921983 </i>
    <i name="e_wo_entrp">    330.44921983 </i>
    <i name="e_0_energy">    330.44921983 </i>
   </energy>
  </scstep>
  <scstep>
   <time name="dav">    1.67    1.69</time>
   <time name="total">    1.68    1.70</time>
   <energy>
    <i name="e_fr_energy">    -63.11764702 </i>
    <i name="e_wo_entrp">    -63.11764702 </i>
    <i name="e_0_energy">    -63.11764702 </i>
   </energy>
  </scstep>
  <scstep>
   <time name="dav">    2.41    2.44</time>
   <time name="total">    2.42    2.45</time>
   <energy>
    <i name="e_fr_energy">    -83.19405366 </i>
    <i name="e_wo_entrp">    -83.19405366 </i>
    <i name="e_0_energy">    -83.19405366 </i>
   </energy>
  </scstep>
  <scstep>
   <time name="dav">    1.71    1.72</time>
   <time name="total">    1.72    1.74</time>
   <energy>
    <i name="e_fr_energy">    -83.32617811 </i>
    <i name="e_wo_entrp">    -83.32617811 </i>
    <i name="e_0_energy">    -83.32617811 </i>
   </energy>
  </scstep>
  <scstep>
   <time name="dav">    2.00    2.02</time>
   <time name="total">    2.04    2.06</time>
   <energy>
    <i name="e_fr_energy">    -83.32734807 </i>
    <i name="e_wo_entrp">    -83.32734807 </i>
    <i name="e_0_energy">    -83.32734807 </i>
   </energy>
  </scstep>
  <scstep>
   <time name="diag">    0.18    0.18</time>
   <time name="diis">    0.57    0.58</time>
   <time name="orth">    0.03    0.03</time>
   <time name="total">    1.27    1.28</time>
   <energy>
    <i name="e_fr_energy">   -100.84633744 </i>
    <i name="e_wo_entrp">   -100.84633744 </i>
    <i name="e_0_energy">   -100.84633744 </i>
   </energy>
  </scstep>
  <scstep>
   <time name="diag">    0.18    0.18</time>
   <time name="diis">    0.63    0.63</time>
   <time name="orth">    0.02    0.02</time>
   <time name="total">    1.33    1.35</time>
   <energy>
    <i name="e_fr_energy">    -62.12516754 </i>
    <i name="e_wo_entrp">    -62.12516754 </i>
    <i name="e_0_energy">    -62.12516754 </i>
   </energy>
  </scstep>
  <scstep>
   <time name="diag">    0.18    0.18</time>
   <time name="diis">    0.55    0.56</time>
   <time name="orth">    0.02    0.02</time>
   <time name="total">    1.26    1.27</time>
   <energy>
    <i name="e_fr_energy">    -62.44881822 </i>
    <i name="e_wo_entrp">    -62.44881822 </i>
    <i name="e_0_energy">    -62.44881822 </i>
   </energy>
  </scstep>
  <scstep>
   <time name="diag">    0.18    0.18</time>
   <time name="diis">    0.57    0.58</time>
   <time name="orth">    0.03    0.03</time>
   <time name="total">    1.28    1.29</time>
   <energy>
    <i name="e_fr_energy">    -63.51929744 </i>
    <i name="e_wo_entrp">    -63.51929744 </i>
    <i name="e_0_energy">    -63.51929744 </i>
   </energy>
  </scstep>
  <scstep>
   <time name="diag">    0.18    0.18</time>
   <time name="diis">    0.57    0.58</time>
   <time name="orth">    0.02    0.02</time>
   <time name="total">    1.27    1.29</time>
   <energy>
    <i name="e_fr_energy">    -63.15149022 </i>
    <i name="e_wo_entrp">    -63.15149022 </i>
    <i name="e_0_energy">    -63.15149022 </i>
   </energy>
  </scstep>
  <scstep>
   <time name="diag">    0.18    0.18</time>
   <time name="diis">    0.59    0.59</time>
   <time name="orth">    0.02    0.03</time>
   <time name="total">    1.28    1.30</time>
   <energy>
    <i name="e_fr_energy">    -63.44776608 </i>
    <i name="e_wo_entrp">    -63.44776608 </i>
    <i name="e_0_energy">    -63.44776608 </i>
   </energy>
  </scstep>
  <scstep>
   <time name="diag">    0.18    0.18</time>
   <time name="diis">    0.59    0.60</time>
   <time name="orth">    0.02    0.02</time>
   <time name="total">    1.30    1.31</time>
   <energy>
    <i name="e_fr_energy">    -63.85409722 </i>
    <i name="e_wo_entrp">    -63.85409722 </i>
    <i name="e_0_energy">    -63.85409722 </i>
   </energy>
  </scstep>
  <scstep>
   <time name="diag">    0.18    0.18</time>
   <time name="diis">    0.59    0.60</time>
   <time name="orth">    0.02    0.03</time>
   <time name="total">    1.29    1.30</time>
   <energy>
    <i name="e_fr_energy">    -63.98818894 </i>
    <i name="e_wo_entrp">    -63.98818894 </i>
    <i name="e_0_energy">    -63.98818894 </i>
   </energy>
  </scstep>
  <scstep>
   <time name="diag">    0.18    0.19</time>
   <time name="diis">    0.59    0.60</time>
   <time name="orth">    0.02    0.03</time>
   <time name="total">    1.30    1.31</time>
   <energy>
    <i name="e_fr_energy">    -64.12190369 </i>
    <i name="e_wo_entrp">    -64.12190369 </i>
    <i name="e_0_energy">    -64.12190369 </i>
   </energy>
  </scstep>
  <scstep>
   <time name="diag">    0.18    0.18</time>
   <time name="diis">    0.56    0.57</time>
   <time name="orth">    0.02    0.02</time>
   <time name="total">    1.26    1.27</time>
   <energy>
    <i name="e_fr_energy">    -64.12605891 </i>
    <i name="e_wo_entrp">    -64.12605891 </i>
    <i name="e_0_energy">    -64.12605891 </i>
   </energy>
  </scstep>
  <scstep>
   <time name="diag">    0.18    0.18</time>
   <time name="diis">    0.56    0.56</time>
   <time name="orth">    0.02    0.02</time>
   <time name="total">    1.26    1.27</time>
   <energy>
    <i name="e_fr_energy">    -64.16256829 </i>
    <i name="e_wo_entrp">    -64.16256829 </i>
    <i name="e_0_energy">    -64.16256829 </i>
   </energy>
  </scstep>
  <scstep>
   <time name="diag">    0.20    0.20</time>
   <time name="diis">    0.57    0.57</time>
   <time name="orth">    0.02    0.02</time>
   <time name="total">    1.29    1.30</time>
   <energy>
    <i name="e_fr_energy">    -64.17805062 </i>
    <i name="e_wo_entrp">    -64.17805062 </i>
    <i name="e_0_energy">    -64.17805062 </i>
   </energy>
  </scstep>
  <scstep>
   <time name="diag">    0.18    0.18</time>
   <time name="diis">    0.56    0.56</time>
   <time name="orth">    0.02    0.02</time>
   <time name="total">    1.26    1.27</time>
   <energy>
    <i name="e_fr_energy">    -64.17848787 </i>
    <i name="e_wo_entrp">    -64.17848787 </i>
    <i name="e_0_energy">    -64.17848787 </i>
   </energy>
  </scstep>
  <scstep>
   <time name="diag">    0.18    0.18</time>
   <time name="diis">    0.53    0.53</time>
   <time name="orth">    0.02    0.02</time>
   <time name="total">    1.23    1.24</time>
   <energy>
    <i name="e_fr_energy">    -64.17804678 </i>
    <i name="e_wo_entrp">    -64.17804678 </i>
    <i name="e_0_energy">    -64.17804678 </i>
   </energy>
  </scstep>
  <scstep>
   <time name="diag">    0.18    0.18</time>
   <time name="diis">    0.47    0.48</time>
   <time name="orth">    0.02    0.02</time>
   <time name="total">    1.14    1.15</time>
   <energy>
    <i name="alphaZ">    226.35407902 </i>
    <i name="ewald">  -4702.04902416 </i>
    <i name="hartreedc">  -1061.58240334 </i>
    <i name="XCdc">    258.99180103 </i>
    <i name="pawpsdc">   5596.02335268 </i>
    <i name="pawaedc">  -5782.43319744 </i>
    <i name="eentropy">      0.00000000 </i>
    <i name="bandstr">   -242.04176810 </i>
    <i name="atom">   5642.55902661 </i>
    <i name="e_fr_energy">    -64.17813372 </i>
    <i name="e_wo_entrp">    -64.17813372 </i>
    <i name="e_0_energy">    -64.17813372 </i>
   </energy>
  </scstep>
  <structure>
   <crystal>
    <varray name="basis" >
     <v>       2.81500000       0.00000000       0.00000000 </v>
     <v>      -1.40750000       2.43786151       0.00000000 </v>
     <v>       0.00000000       0.00000000      14.05200000 </v>
    </varray>
    <i name="volume">     96.43297634 </i>
    <varray name="rec_basis" >
     <v>       0.35523979       0.20509779       0.00000000 </v>
     <v>       0.00000000       0.41019557       0.00000000 </v>
     <v>       0.00000000       0.00000000       0.07116425 </v>
    </varray>
   </crystal>
   <varray name="positions" >
    <v>       0.00000000       0.00000000       0.00000000 </v>
    <v>       0.66666667       0.33333333       0.33333333 </v>
    <v>       0.33333333       0.66666667       0.66666667 </v>
    <v>       0.00000000       0.00000000       0.50000000 </v>
    <v>       0.66666667       0.33333333       0.83333333 </v>
    <v>       0.33333333       0.66666667       0.16666667 </v>
    <v>       0.00000000       0.00000000       0.26160000 </v>
    <v>       0.00000000       0.00000000       0.73840000 </v>
    <v>       0.66666667       0.33333333       0.59493333 </v>
    <v>       0.66666667       0.33333333       0.07173333 </v>
    <v>       0.33333333       0.66666667       0.92826667 </v>
    <v>       0.33333333       0.66666667       0.40506667 </v>
   </varray>
  </structure>
  <varray name="forces" >
   <v>       0.00000000      -0.00000000      -0.00000000 </v>
   <v>       0.00000000      -0.00000000      -0.00000000 </v>
   <v>       0.00000000      -0.00000000      -0.00000000 </v>
   <v>       0.00000000      -0.00000000      -0.00000000 </v>
   <v>       0.00000000      -0.00000000      -0.00000000 </v>
   <v>       0.00000000      -0.00000000      -0.00000000 </v>
   <v>      -0.00000000       0.00000000      -3.38743645 </v>
   <v>       0.00000000      -0.00000000       3.38743645 </v>
   <v>      -0.00000000       0.00000000      -3.38743645 </v>
   <v>       0.00000000      -0.00000000       3.38743645 </v>
   <v>      -0.00000000       0.00000000      -3.38743645 </v>
   <v>       0.00000000       0.00000000       3.38743645 </v>
  </varray>
  <varray name="stress" >
   <v>     113.44568756       0.00000000       0.00000000 </v>
   <v>       0.00000000     113.44568756      -0.00000000 </v>
   <v>       0.00000000       0.00000000     -68.62252422 </v>
  </varray>
  <energy>
   <i name="e_fr_energy">    -64.17813372 </i>
   <i name="e_wo_entrp">    -64.17813372 </i>
   <i name="e_0_energy">      0.00000000 </i>
  </energy>
  <time name="totalsc">   31.92   32.26</time>
 </calculation>
 <calculation>
  <scstep>
   <time name="dav">    1.35    1.36</time>
   <time name="total">    1.84    1.87</time>
   <energy>
    <i name="alphaZ">    218.04104188 </i>
    <i name="ewald">  -4526.71914415 </i>
    <i name="hartreedc">  -1150.22795048 </i>
    <i name="XCdc">    255.79588276 </i>
    <i name="pawpsdc">   5596.23012629 </i>
    <i name="pawaedc">  -5782.63625236 </i>
    <i name="eentropy">      0.00000000 </i>
    <i name="bandstr">   -319.40446818 </i>
    <i name="atom">   5642.55902661 </i>
    <i name="e_fr_energy">    -66.36173764 </i>
    <i name="e_wo_entrp">    -66.36173764 </i>
    <i name="e_0_energy">    -66.36173764 </i>
   </energy>
  </scstep>
  <scstep>
   <time name="diag">    0.18    0.18</time>
   <time name="diis">    0.58    0.59</time>
   <time name="orth">    0.02    0.02</time>
   <time name="total">    1.28    1.29</time>
   <energy>
    <i name="e_fr_energy">    -67.05124437 </i>
    <i name="e_wo_entrp">    -67.05124437 </i>
    <i name="e_0_energy">    -67.05124437 </i>
   </energy>
  </scstep>
  <scstep>
   <time name="diag">    0.18    0.18</time>
   <time name="diis">    0.63    0.64</time>
   <time name="orth">    0.02    0.02</time>
   <time name="total">    1.33    1.34</time>
   <energy>
    <i name="e_fr_energy">    -66.70602100 </i>
    <i name="e_wo_entrp">    -66.70602100 </i>
    <i name="e_0_energy">    -66.70602100 </i>
   </energy>
  </scstep>
  <scstep>
   <time name="diag">    0.18    0.18</time>
   <time name="diis">    0.70    0.71</time>
   <time name="orth">    0.02    0.02</time>
   <time name="total">    1.39    1.41</time>
   <energy>
    <i name="e_fr_energy">    -66.65184079 </i>
    <i name="e_wo_entrp">    -66.65184079 </i>
    <i name="e_0_energy">    -66.65184079 </i>
   </energy>
  </scstep>
  <scstep>
   <time name="diag">    0.18    0.18</time>
   <time name="diis">    0.70    0.71</time>
   <time name="orth">    0.03    0.03</time>
   <time name="total">    1.40    1.42</time>
   <energy>
    <i name="e_fr_energy">    -66.64536929 </i>
    <i name="e_wo_entrp">    -66.64536929 </i>
    <i name="e_0_energy">    -66.64536929 </i>
   </energy>
  </scstep>
  <scstep>
   <time name="diag">    0.18    0.18</time>
   <time name="diis">    0.73    0.74</time>
   <time name="orth">    0.02    0.02</time>
   <time name="total">    1.43    1.44</time>
   <energy>
    <i name="e_fr_energy">    -66.64438581 </i>
    <i name="e_wo_entrp">    -66.64438581 </i>
    <i name="e_0_energy">    -66.64438581 </i>
   </energy>
  </scstep>
  <scstep>
   <time name="diag">    0.18    0.18</time>
   <time name="diis">    0.71    0.71</time>
   <time name="orth">    0.02    0.02</time>
   <time name="total">    1.41    1.42</time>
   <energy>
    <i name="e_fr_energy">    -66.64427644 </i>
    <i name="e_wo_entrp">    -66.64427644 </i>
    <i name="e_0_energy">    -66.64427644 </i>
   </energy>
  </scstep>
  <scstep>
   <time name="diag">    0.18    0.18</time>
   <time name="diis">    0.64    0.64</time>
   <time name="orth">    0.02    0.02</time>
   <time name="total">    1.31    1.32</time>
   <energy>
    <i name="alphaZ">    218.04104188 </i>
    <i name="ewald">  -4526.71914415 </i>
    <i name="hartreedc">  -1201.96088126 </i>
    <i name="XCdc">    258.78624684 </i>
    <i name="pawpsdc">   5780.27791788 </i>
    <i name="pawaedc">  -5968.29330354 </i>
    <i name="eentropy">      0.00000000 </i>
    <i name="bandstr">   -269.33517589 </i>
    <i name="atom">   5642.55902661 </i>
    <i name="e_fr_energy">    -66.64427163 </i>
    <i name="e_wo_entrp">    -66.64427163 </i>
    <i name="e_0_energy">    -66.64427163 </i>
   </energy>
  </scstep>
  <structure>
   <crystal>
    <varray name="basis" >
     <v>       2.89227363       0.00000000       0.00000000 </v>
     <v>      -1.44613682       2.50478244      -0.00000000 </v>
     <v>       0.00000000       0.00000000      13.81867044 </v>
    </varray>
    <i name="volume">    100.10958194 </i>
    <varray name="rec_basis" >
     <v>       0.34574875       0.19961814      -0.00000000 </v>
     <v>      -0.00000000       0.39923627      -0.00000000 </v>
     <v>      -0.00000000       0.00000000       0.07236586 </v>
    </varray>
   </crystal>
   <varray name="positions" >
    <v>       0.00000000      -0.00000000      -0.00000000 </v>
    <v>       0.66666667       0.33333333       0.33333333 </v>
    <v>       0.33333333       0.66666667       0.66666667 </v>
    <v>       0.00000000      -0.00000000       0.50000000 </v>
    <v>       0.66666667       0.33333333       0.83333333 </v>
    <v>       0.33333333       0.66666667       0.16666667 </v>
    <v>      -0.00000000       0.00000000       0.24997042 </v>
    <v>       0.00000000      -0.00000000       0.75002958 </v>
    <v>       0.66666667       0.33333333       0.58330375 </v>
    <v>       0.66666667       0.33333333       0.08336292 </v>
    <v>       0.33333333       0.66666667       0.91663708 </v>
    <v>       0.33333333       0.66666667       0.41669625 </v>
   </varray>
  </structure>
  <varray name="forces" >
   <v>       0.00000000      -0.00000000      -0.00000000 </v>
   <v>       0.00000000      -0.00000000      -0.00000000 </v>
   <v>       0.00000000      -0.00000000      -0.00000000 </v>
   <v>       0.00000000      -0.00000000      -0.00000000 </v>
   <v>       0.00000000      -0.00000000      -0.00000000 </v>
   <v>       0.00000000      -0.00000000      -0.00000000 </v>
   <v>      -0.00000000      -0.00000000      -1.28588640 </v>
   <v>       0.00000000       0.00000000       1.28588640 </v>
   <v>      -0.00000000      -0.00000000      -1.28588640 </v>
   <v>       0.00000000       0.00000000       1.28588640 </v>
   <v>      -0.00000000      -0.00000000      -1.28588640 </v>
   <v>       0.00000000       0.00000000       1.28588640 </v>
  </varray>
  <varray name="stress" >
   <v>       8.81586586      -0.00000000      -0.00000000 </v>
   <v>      -0.00000000       8.81586586      -0.00000000 </v>
   <v>       0.00000000       0.00000000      19.32720556 </v>
  </varray>
  <energy>
   <i name="e_fr_energy">    -66.64427163 </i>
   <i name="e_wo_entrp">    -66.64427163 </i>
   <i name="e_0_energy">      0.00000000 </i>
  </energy>
  <time name="totalsc">   13.71   13.85</time>
 </calculation>
 <calculation>
  <scstep>
   <time name="dav">    1.63    1.64</time>
   <time name="total">    2.12    2.15</time>
   <energy>
    <i name="alphaZ">    213.06873284 </i>
    <i name="ewald">  -4392.25752460 </i>
    <i name="hartreedc">  -1284.93855190 </i>
    <i name="XCdc">    257.02589273 </i>
    <i name="pawpsdc">   5778.38356256 </i>
    <i name="pawaedc">  -5966.38985337 </i>
    <i name="eentropy">      0.00000000 </i>
    <i name="bandstr">   -314.34148643 </i>
    <i name="atom">   5642.55902661 </i>
    <i name="e_fr_energy">    -66.89020157 </i>
    <i name="e_wo_entrp">    -66.89020157 </i>
    <i name="e_0_energy">    -66.89020157 </i>
   </energy>
  </scstep>
  <scstep>
   <time name="diag">    0.18    0.18</time>
   <time name="diis">    0.59    0.60</time>
   <time name="orth">    0.03    0.03</time>
   <time name="total">    1.29    1.30</time>
   <energy>
    <i name="e_fr_energy">    -67.16152017 </i>
    <i name="e_wo_entrp">    -67.16152017 </i>
    <i name="e_0_energy">    -67.16152017 </i>
   </energy>
  </scstep>
  <scstep>
   <time name="diag">    0.26    0.26</time>
   <time name="diis">    0.65    0.67</time>
   <time name="orth">    0.03    0.03</time>
   <time name="total">    1.44    1.46</time>
   <energy>
    <i name="e_fr_energy">    -67.01362955 </i>
    <i name="e_wo_entrp">    -67.01362955 </i>
    <i name="e_0_energy">    -67.01362955 </i>
   </energy>
  </scstep>
  <scstep>
   <time name="diag">    0.19    0.19</time>
   <time name="diis">    0.70    0.71</time>
   <time name="orth">    0.02    0.02</time>
   <time name="total">    1.41    1.42</time>
   <energy>
    <i name="e_fr_energy">    -66.99610206 </i>
    <i name="e_wo_entrp">    -66.99610206 </i>
    <i name="e_0_energy">    -66.99610206 </i>
   </energy>
  </scstep>
  <scstep>
   <time name="diag">    0.18    0.18</time>
   <time name="diis">    0.72    0.73</time>
   <time name="orth">    0.03    0.03</time>
   <time name="total">    1.42    1.43</time>
   <energy>
    <i name="e_fr_energy">    -66.99325285 </i>
    <i name="e_wo_entrp">    -66.99325285 </i>
    <i name="e_0_energy">    -66.99325285 </i>
   </energy>
  </scstep>
  <scstep>
   <time name="diag">    0.18    0.18</time>
   <time name="diis">    0.71    0.71</time>
   <time name="orth">    0.03    0.03</time>
   <time name="total">    1.40    1.42</time>
   <energy>
    <i name="e_fr_energy">    -66.99319045 </i>
    <i name="e_wo_entrp">    -66.99319045 </i>
    <i name="e_0_energy">    -66.99319045 </i>
   </energy>
  </scstep>
  <scstep>
   <time name="diag">    0.18    0.18</time>
   <time name="diis">    0.67    0.67</time>
   <time name="orth">    0.02    0.02</time>
   <time name="total">    1.34    1.35</time>
   <energy>
    <i name="alphaZ">    213.06873284 </i>
    <i name="ewald">  -4392.25752460 </i>
    <i name="hartreedc">  -1317.19562828 </i>
    <i name="XCdc">    258.85767051 </i>
    <i name="pawpsdc">   5907.43918923 </i>
    <i name="pawaedc">  -6096.24982383 </i>
    <i name="eentropy">      0.00000000 </i>
    <i name="bandstr">   -283.21483566 </i>
    <i name="atom">   5642.55902661 </i>
    <i name="e_fr_energy">    -66.99319319 </i>
    <i name="e_wo_entrp">    -66.99319319 </i>
    <i name="e_0_energy">    -66.99319319 </i>
   </energy>
  </scstep>
  <structure>
   <crystal>
    <varray name="basis" >
     <v>       2.94178273       0.00000000       0.00000000 </v>
     <v>      -1.47089137       2.54765858      -0.00000000 </v>
     <v>       0.00000000       0.00000000      13.66917653 </v>
    </varray>
    <i name="volume">    102.44580355 </i>
    <varray name="rec_basis" >
     <v>       0.33992993       0.19625864      -0.00000000 </v>
     <v>      -0.00000000       0.39251727      -0.00000000 </v>
     <v>      -0.00000000       0.00000000       0.07315730 </v>
    </varray>
   </crystal>
   <varray name="positions" >
    <v>       0.00000000      -0.00000000      -0.00000000 </v>
    <v>       0.66666667       0.33333333       0.33333333 </v>
    <v>       0.33333333       0.66666667       0.66666667 </v>
    <v>       0.00000000      -0.00000000       0.50000000 </v>
    <v>       0.66666667       0.33333333       0.83333333 </v>
    <v>       0.33333333       0.66666667       0.16666667 </v>
    <v>       0.00000000       0.00000000       0.24239355 </v>
    <v>      -0.00000000      -0.00000000       0.75760645 </v>
    <v>       0.66666667       0.33333333       0.57572688 </v>
    <v>       0.66666667       0.33333333       0.09093979 </v>
    <v>       0.33333333       0.66666667       0.90906021 </v>
    <v>       0.33333333       0.66666667       0.42427312 </v>
   </varray>
  </structure>
  <varray name="forces" >
   <v>       0.00000000       0.00000000       0.00000000 </v>
   <v>       0.00000000       0.00000000       0.00000000 </v>
   <v>       0.00000000       0.00000000       0.00000000 </v>
   <v>       0.00000000       0.00000000       0.00000000 </v>
   <v>       0.00000000       0.00000000       0.00000000 </v>
   <v>       0.00000000       0.00000000       0.00000000 </v>
   <v>      -0.00000000       0.00000000       0.10089076 </v>
   <v>       0.00000000      -0.00000000      -0.10089076 </v>
   <v>      -0.00000000       0.00000000       0.10089076 </v>
   <v>       0.00000000      -0.00000000      -0.10089076 </v>
   <v>      -0.00000000       0.00000000       0.10089076 </v>
   <v>      -0.00000000      -0.00000000      -0.10089076 </v>
  </varray>
  <varray name="stress" >
   <v>       4.36838622       0.00000000       0.00000000 </v>
   <v>       0.00000000       4.36838622      -0.00000000 </v>
   <v>       0.00000000      -0.00000000      92.66881015 </v>
  </varray>
  <energy>
   <i name="e_fr_energy">    -66.99319319 </i>
   <i name="e_wo_entrp">    -66.99319319 </i>
   <i name="e_0_energy">      0.00000000 </i>
  </energy>
  <time name="totalsc">   12.72   12.85</time>
 </calculation>
 <calculation>
  <scstep>
   <time name="dav">    1.79    1.81</time>
   <time name="total">    2.29    2.31</time>
   <energy>
    <i name="alphaZ">    213.67711487 </i>
    <i name="ewald">  -4409.83292402 </i>
    <i name="hartreedc">  -1305.62959098 </i>
    <i name="XCdc">    259.05728692 </i>
    <i name="pawpsdc">   5903.83931394 </i>
    <i name="pawaedc">  -6092.71224928 </i>
    <i name="eentropy">      0.00000000 </i>
    <i name="bandstr">   -277.95907822 </i>
    <i name="atom">   5642.55902661 </i>
    <i name="e_fr_energy">    -67.00110015 </i>
    <i name="e_wo_entrp">    -67.00110015 </i>
    <i name="e_0_energy">    -67.00110015 </i>
   </energy>
  </scstep>
  <scstep>
   <time name="diag">    0.18    0.18</time>
   <time name="diis">    0.62    0.62</time>
   <time name="orth">    0.03    0.03</time>
   <time name="total">    1.31    1.32</time>
   <energy>
    <i name="e_fr_energy">    -67.00310870 </i>
    <i name="e_wo_entrp">    -67.00310870 </i>
    <i name="e_0_energy">    -67.00310870 </i>
   </energy>
  </scstep>
  <scstep>
   <time name="diag">    0.18    0.18</time>
   <time name="diis">    0.62    0.62</time>
   <time name="orth">    0.03    0.03</time>
   <time name="total">    1.32    1.33</time>
   <energy>
    <i name="e_fr_energy">    -67.00148522 </i>
    <i name="e_wo_entrp">    -67.00148522 </i>
    <i name="e_0_energy">    -67.00148522 </i>
   </energy>
  </scstep>
  <scstep>
   <time name="diag">    0.18    0.18</time>
   <time name="diis">    0.64    0.65</time>
   <time name="orth">    0.02    0.02</time>
   <time name="total">    1.34    1.36</time>
   <energy>
    <i name="e_fr_energy">    -67.00120546 </i>
    <i name="e_wo_entrp">    -67.00120546 </i>
    <i name="e_0_energy">    -67.00120546 </i>
   </energy>
  </scstep>
  <scstep>
   <time name="diag">    0.18    0.18</time>
   <time name="diis">    0.56    0.57</time>
   <time name="orth">    0.02    0.02</time>
   <time name="total">    1.23    1.24</time>
   <energy>
    <i name="alphaZ">    213.67711487 </i>
    <i name="ewald">  -4409.83292402 </i>
    <i name="hartreedc">  -1301.81417503 </i>
    <i name="XCdc">    258.83489743 </i>
    <i name="pawpsdc">   5884.75990128 </i>
    <i name="pawaedc">  -6073.57136357 </i>
    <i name="eentropy">      0.00000000 </i>
    <i name="bandstr">   -281.61365450 </i>
    <i name="atom">   5642.55902661 </i>
    <i name="e_fr_energy">    -67.00117692 </i>
    <i name="e_wo_entrp">    -67.00117692 </i>
    <i name="e_0_energy">    -67.00117692 </i>
   </energy>
  </scstep>
  <structure>
   <crystal>
    <varray name="basis" >
     <v>       2.93558202       0.00000000       0.00000000 </v>
     <v>      -1.46779101       2.54228860      -0.00000000 </v>
     <v>       0.00000000       0.00000000      13.68789973 </v>
    </varray>
    <i name="volume">    102.15411959 </i>
    <varray name="rec_basis" >
     <v>       0.34064795       0.19667319      -0.00000000 </v>
     <v>      -0.00000000       0.39334637      -0.00000000 </v>
     <v>      -0.00000000       0.00000000       0.07305723 </v>
    </varray>
   </crystal>
   <varray name="positions" >
    <v>       0.00000000      -0.00000000      -0.00000000 </v>
    <v>       0.66666667       0.33333333       0.33333333 </v>
    <v>       0.33333333       0.66666667       0.66666667 </v>
    <v>       0.00000000      -0.00000000       0.50000000 </v>
    <v>       0.66666667       0.33333333       0.83333333 </v>
    <v>       0.33333333       0.66666667       0.16666667 </v>
    <v>       0.00000000       0.00000000       0.24335288 </v>
    <v>      -0.00000000      -0.00000000       0.75664712 </v>
    <v>       0.66666667       0.33333333       0.57668621 </v>
    <v>       0.66666667       0.33333333       0.08998045 </v>
    <v>       0.33333333       0.66666667       0.91001955 </v>
    <v>       0.33333333       0.66666667       0.42331379 </v>
   </varray>
  </structure>
  <varray name="forces" >
   <v>      -0.00000000       0.00000000       0.00000000 </v>
   <v>      -0.00000000       0.00000000       0.00000000 </v>
   <v>      -0.00000000       0.00000000       0.00000000 </v>
   <v>      -0.00000000       0.00000000       0.00000000 </v>
   <v>      -0.00000000       0.00000000       0.00000000 </v>
   <v>      -0.00000000       0.00000000       0.00000000 </v>
   <v>       0.00000000      -0.00000000      -0.06880587 </v>
   <v>       0.00000000       0.00000000       0.06880587 </v>
   <v>      -0.00000000      -0.00000000      -0.06880587 </v>
   <v>      -0.00000000       0.00000000       0.06880587 </v>
   <v>      -0.00000000      -0.00000000      -0.06880587 </v>
   <v>       0.00000000       0.00000000       0.06880587 </v>
  </varray>
  <varray name="stress" >
   <v>      -3.36329068      -0.00000000       0.00000000 </v>
   <v>      -0.00000000      -3.36329068       0.00000000 </v>
   <v>       0.00000000       0.00000000      77.69919700 </v>
  </varray>
  <energy>
   <i name="e_fr_energy">    -67.00117692 </i>
   <i name="e_wo_entrp">    -67.00117692 </i>
   <i name="e_0_energy">      0.00000000 </i>
  </energy>
  <time name="totalsc">    9.80    9.90</time>
 </calculation>
 <calculation>
  <scstep>
   <time name="dav">    1.66    1.67</time>
   <time name="total">    2.15    2.19</time>
   <energy>
    <i name="alphaZ">    209.14476672 </i>
    <i name="ewald">  -4354.59109617 </i>
    <i name="hartreedc">  -1311.71600259 </i>
    <i name="XCdc">    256.71795907 </i>
    <i name="pawpsdc">   5884.48111043 </i>
    <i name="pawaedc">  -6073.28214403 </i>
    <i name="eentropy">      0.00000000 </i>
    <i name="bandstr">   -320.71740139 </i>
    <i name="atom">   5642.55902661 </i>
    <i name="e_fr_energy">    -67.40378135 </i>
    <i name="e_wo_entrp">    -67.40378135 </i>
    <i name="e_0_energy">    -67.40378135 </i>
   </energy>
  </scstep>
  <scstep>
   <time name="diag">    0.18    0.18</time>
   <time name="diis">    0.57    0.58</time>
   <time name="orth">    0.03    0.03</time>
   <time name="total">    1.27    1.28</time>
   <energy>
    <i name="e_fr_energy">    -67.15734928 </i>
    <i name="e_wo_entrp">    -67.15734928 </i>
    <i name="e_0_energy">    -67.15734928 </i>
   </energy>
  </scstep>
  <scstep>
   <time name="diag">    0.18    0.18</time>
   <time name="diis">    0.64    0.65</time>
   <time name="orth">    0.02    0.02</time>
   <time name="total">    1.34    1.35</time>
   <energy>
    <i name="e_fr_energy">    -67.11008282 </i>
    <i name="e_wo_entrp">    -67.11008282 </i>
    <i name="e_0_energy">    -67.11008282 </i>
   </energy>
  </scstep>
  <scstep>
   <time name="diag">    0.18    0.18</time>
   <time name="diis">    0.72    0.72</time>
   <time name="orth">    0.02    0.02</time>
   <time name="total">    1.42    1.43</time>
   <energy>
    <i name="e_fr_energy">    -67.09121087 </i>
    <i name="e_wo_entrp">    -67.09121087 </i>
    <i name="e_0_energy">    -67.09121087 </i>
   </energy>
  </scstep>
  <scstep>
   <time name="diag">    0.18    0.18</time>
   <time name="diis">    0.67    0.68</time>
   <time name="orth">    0.02    0.02</time>
   <time name="total">    1.37    1.38</time>
   <energy>
    <i name="e_fr_energy">    -67.08822291 </i>
    <i name="e_wo_entrp">    -67.08822291 </i>
    <i name="e_0_energy">    -67.08822291 </i>
   </energy>
  </scstep>
  <scstep>
   <time name="diag">    0.18    0.18</time>
   <time name="diis">    0.65    0.66</time>
   <time name="orth">    0.02    0.02</time>
   <time name="total">    1.36    1.37</time>
   <energy>
    <i name="e_fr_energy">    -67.08851724 </i>
    <i name="e_wo_entrp">    -67.08851724 </i>
    <i name="e_0_energy">    -67.08851724 </i>
   </energy>
  </scstep>
  <scstep>
   <time name="diag">    0.18    0.18</time>
   <time name="diis">    0.56    0.56</time>
   <time name="orth">    0.02    0.02</time>
   <time name="total">    1.23    1.24</time>
   <energy>
    <i name="alphaZ">    209.14476672 </i>
    <i name="ewald">  -4354.59109617 </i>
    <i name="hartreedc">  -1339.27161109 </i>
    <i name="XCdc">    258.43629732 </i>
    <i name="pawpsdc">   5844.21224925 </i>
    <i name="pawaedc">  -6032.90072010 </i>
    <i name="eentropy">      0.00000000 </i>
    <i name="bandstr">   -294.67745776 </i>
    <i name="atom">   5642.55902661 </i>
    <i name="e_fr_energy">    -67.08854523 </i>
    <i name="e_wo_entrp">    -67.08854523 </i>
    <i name="e_0_energy">    -67.08854523 </i>
   </energy>
  </scstep>
  <structure>
   <crystal>
    <varray name="basis" >
     <v>       2.93579002       0.00000000       0.00000000 </v>
     <v>      -1.46789501       2.54246873      -0.00000000 </v>
     <v>       0.00000000       0.00000000      13.98254689 </v>
    </varray>
    <i name="volume">    104.36788780 </i>
    <varray name="rec_basis" >
     <v>       0.34062382       0.19665925      -0.00000000 </v>
     <v>      -0.00000000       0.39331850      -0.00000000 </v>
     <v>      -0.00000000      -0.00000000       0.07151773 </v>
    </varray>
   </crystal>
   <varray name="positions" >
    <v>      -0.00000000       0.00000000      -0.00000000 </v>
    <v>       0.66666667       0.33333333       0.33333333 </v>
    <v>       0.33333333       0.66666667       0.66666667 </v>
    <v>      -0.00000000       0.00000000       0.50000000 </v>
    <v>       0.66666667       0.33333333       0.83333333 </v>
    <v>       0.33333333       0.66666667       0.16666667 </v>
    <v>       0.00000000       0.00000000       0.24263540 </v>
    <v>      -0.00000000      -0.00000000       0.75736460 </v>
    <v>       0.66666667       0.33333333       0.57596873 </v>
    <v>       0.66666667       0.33333333       0.09069793 </v>
    <v>       0.33333333       0.66666667       0.90930207 </v>
    <v>       0.33333333       0.66666667       0.42403127 </v>
   </varray>
  </structure>
  <varray name="forces" >
   <v>       0.00000000       0.00000000       0.00000000 </v>
   <v>       0.00000000       0.00000000       0.00000000 </v>
   <v>       0.00000000       0.00000000      -0.00000000 </v>
   <v>       0.00000000       0.00000000      -0.00000000 </v>
   <v>       0.00000000       0.00000000      -0.00000000 </v>
   <v>       0.00000000       0.00000000       0.00000000 </v>
   <v>      -0.00000000      -0.00000000      -0.09637786 </v>
   <v>       0.00000000       0.00000000       0.09637786 </v>
   <v>      -0.00000000      -0.00000000      -0.09637786 </v>
   <v>       0.00000000       0.00000000       0.09637786 </v>
   <v>      -0.00000000      -0.00000000      -0.09637786 </v>
   <v>       0.00000000       0.00000000       0.09637786 </v>
  </varray>
  <varray name="stress" >
   <v>     -17.14181537       0.00000000       0.00000000 </v>
   <v>       0.00000000     -17.14181537       0.00000000 </v>
   <v>       0.00000000       0.00000000      35.12660646 </v>
  </varray>
  <energy>
   <i name="e_fr_energy">    -67.08854523 </i>
   <i name="e_wo_entrp">    -67.08854523 </i>
   <i name="e_0_energy">      0.00000000 </i>
  </energy>
  <time name="totalsc">   12.41   12.54</time>
 </calculation>
 <calculation>
  <scstep>
   <time name="dav">    1.85    1.86</time>
   <time name="total">    2.35    2.37</time>
   <energy>
    <i name="alphaZ">    206.72232786 </i>
    <i name="ewald">  -4324.16856538 </i>
    <i name="hartreedc">  -1345.12439960 </i>
    <i name="XCdc">    257.28766592 </i>
    <i name="pawpsdc">   5843.85397579 </i>
    <i name="pawaedc">  -6032.53309364 </i>
    <i name="eentropy">      0.00000000 </i>
    <i name="bandstr">   -315.80202114 </i>
    <i name="atom">   5642.55902661 </i>
    <i name="e_fr_energy">    -67.20508359 </i>
    <i name="e_wo_entrp">    -67.20508359 </i>
    <i name="e_0_energy">    -67.20508359 </i>
   </energy>
  </scstep>
  <scstep>
   <time name="diag">    0.18    0.18</time>
   <time name="diis">    0.58    0.59</time>
   <time name="orth">    0.03    0.03</time>
   <time name="total">    1.28    1.29</time>
   <energy>
    <i name="e_fr_energy">    -67.13150048 </i>
    <i name="e_wo_entrp">    -67.13150048 </i>
    <i name="e_0_energy">    -67.13150048 </i>
   </energy>
  </scstep>
  <scstep>
   <time name="diag">    0.18    0.18</time>
   <time name="diis">    0.64    0.64</time>
   <time name="orth">    0.02    0.02</time>
   <time name="total">    1.35    1.36</time>
   <energy>
    <i name="e_fr_energy">    -67.11795155 </i>
    <i name="e_wo_entrp">    -67.11795155 </i>
    <i name="e_0_energy">    -67.11795155 </i>
   </energy>
  </scstep>
  <scstep>
   <time name="diag">    0.18    0.18</time>
   <time name="diis">    0.70    0.71</time>
   <time name="orth">    0.02    0.02</time>
   <time name="total">    1.41    1.42</time>
   <energy>
    <i name="e_fr_energy">    -67.11233653 </i>
    <i name="e_wo_entrp">    -67.11233653 </i>
    <i name="e_0_energy">    -67.11233653 </i>
   </energy>
  </scstep>
  <scstep>
   <time name="diag">    0.18    0.18</time>
   <time name="diis">    0.66    0.67</time>
   <time name="orth">    0.02    0.02</time>
   <time name="total">    1.36    1.37</time>
   <energy>
    <i name="e_fr_energy">    -67.11144211 </i>
    <i name="e_wo_entrp">    -67.11144211 </i>
    <i name="e_0_energy">    -67.11144211 </i>
   </energy>
  </scstep>
  <scstep>
   <time name="diag">    0.18    0.18</time>
   <time name="diis">    0.56    0.57</time>
   <time name="orth">    0.02    0.02</time>
   <time name="total">    1.23    1.24</time>
   <energy>
    <i name="alphaZ">    206.72232786 </i>
    <i name="ewald">  -4324.16856538 </i>
    <i name="hartreedc">  -1360.16531020 </i>
    <i name="XCdc">    258.22090124 </i>
    <i name="pawpsdc">   5822.62607247 </i>
    <i name="pawaedc">  -6011.23527936 </i>
    <i name="eentropy">      0.00000000 </i>
    <i name="bandstr">   -301.67069401 </i>
    <i name="atom">   5642.55902661 </i>
    <i name="e_fr_energy">    -67.11152078 </i>
    <i name="e_wo_entrp">    -67.11152078 </i>
    <i name="e_0_energy">    -67.11152078 </i>
   </energy>
  </scstep>
  <structure>
   <crystal>
    <varray name="basis" >
     <v>       2.93590490       0.00000000       0.00000000 </v>
     <v>      -1.46795245       2.54256823      -0.00000000 </v>
     <v>       0.00000000       0.00000000      14.14529179 </v>
    </varray>
    <i name="volume">    105.59090435 </i>
    <varray name="rec_basis" >
     <v>       0.34061049       0.19665156      -0.00000000 </v>
     <v>      -0.00000000       0.39330311      -0.00000000 </v>
     <v>      -0.00000000      -0.00000000       0.07069490 </v>
    </varray>
   </crystal>
   <varray name="positions" >
    <v>      -0.00000000       0.00000000      -0.00000000 </v>
    <v>       0.66666667       0.33333333       0.33333333 </v>
    <v>       0.33333333       0.66666667       0.66666667 </v>
    <v>      -0.00000000       0.00000000       0.50000000 </v>
    <v>       0.66666667       0.33333333       0.83333333 </v>
    <v>       0.33333333       0.66666667       0.16666667 </v>
    <v>       0.00000000       0.00000000       0.24224746 </v>
    <v>      -0.00000000      -0.00000000       0.75775254 </v>
    <v>       0.66666667       0.33333333       0.57558079 </v>
    <v>       0.66666667       0.33333333       0.09108587 </v>
    <v>       0.33333333       0.66666667       0.90891413 </v>
    <v>       0.33333333       0.66666667       0.42441921 </v>
   </varray>
  </structure>
  <varray name="forces" >
   <v>      -0.00000000      -0.00000000      -0.00000000 </v>
   <v>      -0.00000000      -0.00000000      -0.00000000 </v>
   <v>      -0.00000000      -0.00000000      -0.00000000 </v>
   <v>      -0.00000000      -0.00000000      -0.00000000 </v>
   <v>      -0.00000000      -0.00000000      -0.00000000 </v>
   <v>      -0.00000000      -0.00000000      -0.00000000 </v>
   <v>      -0.00000000      -0.00000000      -0.10410288 </v>
   <v>       0.00000000       0.00000000       0.10410288 </v>
   <v>      -0.00000000      -0.00000000      -0.10410288 </v>
   <v>       0.00000000       0.00000000       0.10410288 </v>
   <v>      -0.00000000      -0.00000000      -0.10410288 </v>
   <v>       0.00000000       0.00000000       0.10410288 </v>
  </varray>
  <varray name="stress" >
   <v>     -18.78774971       0.00000000       0.00000000 </v>
   <v>       0.00000000     -18.78774971      -0.00000000 </v>
   <v>       0.00000000       0.00000000      18.04842006 </v>
  </varray>
  <energy>
   <i name="e_fr_energy">    -67.11152078 </i>
   <i name="e_wo_entrp">    -67.11152078 </i>
   <i name="e_0_energy">      0.00000000 </i>
  </energy>
  <time name="totalsc">   11.25   11.36</time>
 </calculation>
 <calculation>
  <scstep>
   <time name="dav">    1.71    1.73</time>
   <time name="total">    2.21    2.23</time>
   <energy>
    <i name="alphaZ">    202.04091872 </i>
    <i name="ewald">  -4263.32774418 </i>
    <i name="hartreedc">  -1372.87126241 </i>
    <i name="XCdc">    255.97278450 </i>
    <i name="pawpsdc">   5822.37940777 </i>
    <i name="pawaedc">  -6011.01491783 </i>
    <i name="eentropy">      0.00000000 </i>
    <i name="bandstr">   -343.20984883 </i>
    <i name="atom">   5642.55902661 </i>
    <i name="e_fr_energy">    -67.47163565 </i>
    <i name="e_wo_entrp">    -67.47163565 </i>
    <i name="e_0_energy">    -67.47163565 </i>
   </energy>
  </scstep>
  <scstep>
   <time name="diag">    0.18    0.18</time>
   <time name="diis">    0.58    0.58</time>
   <time name="orth">    0.02    0.03</time>
   <time name="total">    1.27    1.28</time>
   <energy>
    <i name="e_fr_energy">    -67.18609278 </i>
    <i name="e_wo_entrp">    -67.18609278 </i>
    <i name="e_0_energy">    -67.18609278 </i>
   </energy>
  </scstep>
  <scstep>
   <time name="diag">    0.18    0.18</time>
   <time name="diis">    0.63    0.64</time>
   <time name="orth">    0.02    0.02</time>
   <time name="total">    1.33    1.35</time>
   <energy>
    <i name="e_fr_energy">    -67.13079164 </i>
    <i name="e_wo_entrp">    -67.13079164 </i>
    <i name="e_0_energy">    -67.13079164 </i>
   </energy>
  </scstep>
  <scstep>
   <time name="diag">    0.18    0.18</time>
   <time name="diis">    0.71    0.71</time>
   <time name="orth">    0.03    0.03</time>
   <time name="total">    1.41    1.42</time>
   <energy>
    <i name="e_fr_energy">    -67.10922668 </i>
    <i name="e_wo_entrp">    -67.10922668 </i>
    <i name="e_0_energy">    -67.10922668 </i>
   </energy>
  </scstep>
  <scstep>
   <time name="diag">    0.18    0.18</time>
   <time name="diis">    0.65    0.66</time>
   <time name="orth">    0.02    0.02</time>
   <time name="total">    1.36    1.37</time>
   <energy>
    <i name="e_fr_energy">    -67.10567729 </i>
    <i name="e_wo_entrp">    -67.10567729 </i>
    <i name="e_0_energy">    -67.10567729 </i>
   </energy>
  </scstep>
  <scstep>
   <time name="diag">    0.18    0.18</time>
   <time name="diis">    0.66    0.66</time>
   <time name="orth">    0.02    0.02</time>
   <time name="total">    1.37    1.38</time>
   <energy>
    <i name="e_fr_energy">    -67.10600583 </i>
    <i name="e_wo_entrp">    -67.10600583 </i>
    <i name="e_0_energy">    -67.10600583 </i>
   </energy>
  </scstep>
  <scstep>
   <time name="diag">    0.18    0.18</time>
   <time name="diis">    0.58    0.59</time>
   <time name="orth">    0.02    0.02</time>
   <time name="total">    1.25    1.26</time>
   <energy>
    <i name="alphaZ">    202.04091872 </i>
    <i name="ewald">  -4263.32774418 </i>
    <i name="hartreedc">  -1402.90847210 </i>
    <i name="XCdc">    257.82061593 </i>
    <i name="pawpsdc">   5781.50294812 </i>
    <i name="pawaedc">  -5970.02275509 </i>
    <i name="eentropy">      0.00000000 </i>
    <i name="bandstr">   -314.77058322 </i>
    <i name="atom">   5642.55902661 </i>
    <i name="e_fr_energy">    -67.10604523 </i>
    <i name="e_wo_entrp">    -67.10604523 </i>
    <i name="e_0_energy">    -67.10604523 </i>
   </energy>
  </scstep>
  <structure>
   <crystal>
    <varray name="basis" >
     <v>       2.93613467       0.00000000       0.00000000 </v>
     <v>      -1.46806733       2.54276721       0.00000000 </v>
     <v>       0.00000000       0.00000000      14.47078159 </v>
    </varray>
    <i name="volume">    108.03750887 </i>
    <varray name="rec_basis" >
     <v>       0.34058383       0.19663617      -0.00000000 </v>
     <v>      -0.00000000       0.39327234      -0.00000000 </v>
     <v>      -0.00000000      -0.00000000       0.06910477 </v>
    </varray>
   </crystal>
   <varray name="positions" >
    <v>      -0.00000000       0.00000000      -0.00000000 </v>
    <v>       0.66666667       0.33333333       0.33333333 </v>
    <v>       0.33333333       0.66666667       0.66666667 </v>
    <v>      -0.00000000       0.00000000       0.50000000 </v>
    <v>       0.66666667       0.33333333       0.83333333 </v>
    <v>       0.33333333       0.66666667       0.16666667 </v>
    <v>       0.00000000       0.00000000       0.24148050 </v>
    <v>      -0.00000000      -0.00000000       0.75851950 </v>
    <v>       0.66666667       0.33333333       0.57481384 </v>
    <v>       0.66666667       0.33333333       0.09185283 </v>
    <v>       0.33333333       0.66666667       0.90814717 </v>
    <v>       0.33333333       0.66666667       0.42518616 </v>
   </varray>
  </structure>
  <varray name="forces" >
   <v>       0.00000000       0.00000000       0.00000000 </v>
   <v>       0.00000000       0.00000000      -0.00000000 </v>
   <v>       0.00000000       0.00000000       0.00000000 </v>
   <v>       0.00000000       0.00000000       0.00000000 </v>
   <v>       0.00000000       0.00000000       0.00000000 </v>
   <v>       0.00000000       0.00000000       0.00000000 </v>
   <v>      -0.00000000      -0.00000000      -0.12540448 </v>
   <v>       0.00000000       0.00000000       0.12540448 </v>
   <v>      -0.00000000      -0.00000000      -0.12540448 </v>
   <v>       0.00000000       0.00000000       0.12540448 </v>
   <v>      -0.00000000      -0.00000000      -0.12540448 </v>
   <v>       0.00000000       0.00000000       0.12540448 </v>
  </varray>
  <varray name="stress" >
   <v>     -37.88107914       0.00000000      -0.00000000 </v>
   <v>       0.00000000     -37.88107914       0.00000000 </v>
   <v>      -0.00000000       0.00000000     -32.94773667 </v>
  </varray>
  <energy>
   <i name="e_fr_energy">    -67.10604523 </i>
   <i name="e_wo_entrp">    -67.10604523 </i>
   <i name="e_0_energy">      0.00000000 </i>
  </energy>
  <time name="totalsc">   12.45   12.59</time>
 </calculation>
 <calculation>
  <scstep>
   <time name="dav">    1.72    1.74</time>
   <time name="total">    2.22    2.24</time>
   <energy>
    <i name="alphaZ">    204.65409163 </i>
    <i name="ewald">  -4297.48298284 </i>
    <i name="hartreedc">  -1395.63722260 </i>
    <i name="XCdc">    259.09671176 </i>
    <i name="pawpsdc">   5781.10000437 </i>
    <i name="pawaedc">  -5969.61438211 </i>
    <i name="eentropy">      0.00000000 </i>
    <i name="bandstr">   -291.90732336 </i>
    <i name="atom">   5642.55902661 </i>
    <i name="e_fr_energy">    -67.23207654 </i>
    <i name="e_wo_entrp">    -67.23207654 </i>
    <i name="e_0_energy">    -67.23207654 </i>
   </energy>
  </scstep>
  <scstep>
   <time name="diag">    0.18    0.18</time>
   <time name="diis">    0.58    0.59</time>
   <time name="orth">    0.02    0.02</time>
   <time name="total">    1.28    1.29</time>
   <energy>
    <i name="e_fr_energy">    -67.13979863 </i>
    <i name="e_wo_entrp">    -67.13979863 </i>
    <i name="e_0_energy">    -67.13979863 </i>
   </energy>
  </scstep>
  <scstep>
   <time name="diag">    0.18    0.18</time>
   <time name="diis">    0.66    0.67</time>
   <time name="orth">    0.04    0.04</time>
   <time name="total">    1.38    1.40</time>
   <energy>
    <i name="e_fr_energy">    -67.12540375 </i>
    <i name="e_wo_entrp">    -67.12540375 </i>
    <i name="e_0_energy">    -67.12540375 </i>
   </energy>
  </scstep>
  <scstep>
   <time name="diag">    0.18    0.18</time>
   <time name="diis">    0.70    0.70</time>
   <time name="orth">    0.02    0.02</time>
   <time name="total">    1.42    1.43</time>
   <energy>
    <i name="e_fr_energy">    -67.11839338 </i>
    <i name="e_wo_entrp">    -67.11839338 </i>
    <i name="e_0_energy">    -67.11839338 </i>
   </energy>
  </scstep>
  <scstep>
   <time name="diag">    0.18    0.18</time>
   <time name="diis">    0.64    0.65</time>
   <time name="orth">    0.03    0.03</time>
   <time name="total">    1.35    1.36</time>
   <energy>
    <i name="e_fr_energy">    -67.11731624 </i>
    <i name="e_wo_entrp">    -67.11731624 </i>
    <i name="e_0_energy">    -67.11731624 </i>
   </energy>
  </scstep>
  <scstep>
   <time name="diag">    0.18    0.18</time>
   <time name="diis">    0.56    0.56</time>
   <time name="orth">    0.02    0.02</time>
   <time name="total">    1.27    1.28</time>
   <energy>
    <i name="e_fr_energy">    -67.11742932 </i>
    <i name="e_wo_entrp">    -67.11742932 </i>
    <i name="e_0_energy">    -67.11742932 </i>
   </energy>
  </scstep>
  <scstep>
   <time name="diag">    0.18    0.18</time>
   <time name="diis">    0.44    0.45</time>
   <time name="orth">    0.02    0.02</time>
   <time name="total">    1.12    1.13</time>
   <energy>
    <i name="alphaZ">    204.65409163 </i>
    <i name="ewald">  -4297.48298284 </i>
    <i name="hartreedc">  -1378.81852919 </i>
    <i name="XCdc">    258.05051043 </i>
    <i name="pawpsdc">   5804.37418839 </i>
    <i name="pawaedc">  -5992.95775943 </i>
    <i name="eentropy">      0.00000000 </i>
    <i name="bandstr">   -307.49598869 </i>
    <i name="atom">   5642.55902661 </i>
    <i name="e_fr_energy">    -67.11744308 </i>
    <i name="e_wo_entrp">    -67.11744308 </i>
    <i name="e_0_energy">    -67.11744308 </i>
   </energy>
  </scstep>
  <structure>
   <crystal>
    <varray name="basis" >
     <v>       2.93600512       0.00000000       0.00000000 </v>
     <v>      -1.46800256       2.54265502      -0.00000000 </v>
     <v>       0.00000000       0.00000000      14.28726878 </v>
    </varray>
    <i name="volume">    106.65800704 </i>
    <varray name="rec_basis" >
     <v>       0.34059886       0.19664484      -0.00000000 </v>
     <v>      -0.00000000       0.39328969      -0.00000000 </v>
     <v>      -0.00000000      -0.00000000       0.06999238 </v>
    </varray>
   </crystal>
   <varray name="positions" >
    <v>      -0.00000000       0.00000000      -0.00000000 </v>
    <v>       0.66666667       0.33333333       0.33333333 </v>
    <v>       0.33333333       0.66666667       0.66666667 </v>
    <v>      -0.00000000       0.00000000       0.50000000 </v>
    <v>       0.66666667       0.33333333       0.83333333 </v>
    <v>       0.33333333       0.66666667       0.16666667 </v>
    <v>       0.00000000       0.00000000       0.24190319 </v>
    <v>      -0.00000000      -0.00000000       0.75809681 </v>
    <v>       0.66666667       0.33333333       0.57523652 </v>
    <v>       0.66666667       0.33333333       0.09143014 </v>
    <v>       0.33333333       0.66666667       0.90856986 </v>
    <v>       0.33333333       0.66666667       0.42476348 </v>
   </varray>
  </structure>
  <varray name="forces" >
   <v>      -0.00000000      -0.00000000      -0.00000000 </v>
   <v>      -0.00000000      -0.00000000      -0.00000000 </v>
   <v>      -0.00000000      -0.00000000      -0.00000000 </v>
   <v>      -0.00000000      -0.00000000      -0.00000000 </v>
   <v>      -0.00000000      -0.00000000      -0.00000000 </v>
   <v>      -0.00000000      -0.00000000      -0.00000000 </v>
   <v>      -0.00000000      -0.00000000      -0.11376950 </v>
   <v>       0.00000000       0.00000000       0.11376950 </v>
   <v>      -0.00000000      -0.00000000      -0.11376950 </v>
   <v>       0.00000000       0.00000000       0.11376950 </v>
   <v>      -0.00000000      -0.00000000      -0.11376950 </v>
   <v>       0.00000000       0.00000000       0.11376950 </v>
  </varray>
  <varray name="stress" >
   <v>     -25.74935751      -0.00000000      -0.00000000 </v>
   <v>      -0.00000000     -25.74935751       0.00000000 </v>
   <v>       0.00000000      -0.00000000      -3.28312996 </v>
  </varray>
  <energy>
   <i name="e_fr_energy">    -67.11744308 </i>
   <i name="e_wo_entrp">    -67.11744308 </i>
   <i name="e_0_energy">      0.00000000 </i>
  </energy>
  <time name="totalsc">   12.31   12.43</time>
 </calculation>
 <calculation>
  <scstep>
   <time name="dav">    1.58    1.59</time>
   <time name="total">    2.08    2.10</time>
   <energy>
    <i name="alphaZ">    207.29600901 </i>
    <i name="ewald">  -4292.52741707 </i>
    <i name="hartreedc">  -1404.50193230 </i>
    <i name="XCdc">    259.42509408 </i>
    <i name="pawpsdc">   5804.51523417 </i>
    <i name="pawaedc">  -5993.10627012 </i>
    <i name="eentropy">      0.00000000 </i>
    <i name="bandstr">   -290.87364381 </i>
    <i name="atom">   5642.55902661 </i>
    <i name="e_fr_energy">    -67.21389943 </i>
    <i name="e_wo_entrp">    -67.21389943 </i>
    <i name="e_0_energy">    -67.21389943 </i>
   </energy>
  </scstep>
  <scstep>
   <time name="diag">    0.18    0.18</time>
   <time name="diis">    0.62    0.62</time>
   <time name="orth">    0.02    0.02</time>
   <time name="total">    1.32    1.33</time>
   <energy>
    <i name="e_fr_energy">    -67.14622363 </i>
    <i name="e_wo_entrp">    -67.14622363 </i>
    <i name="e_0_energy">    -67.14622363 </i>
   </energy>
  </scstep>
  <scstep>
   <time name="diag">    0.18    0.18</time>
   <time name="diis">    0.65    0.66</time>
   <time name="orth">    0.02    0.02</time>
   <time name="total">    1.36    1.37</time>
   <energy>
    <i name="e_fr_energy">    -67.13363877 </i>
    <i name="e_wo_entrp">    -67.13363877 </i>
    <i name="e_0_energy">    -67.13363877 </i>
   </energy>
  </scstep>
  <scstep>
   <time name="diag">    0.18    0.18</time>
   <time name="diis">    0.67    0.67</time>
   <time name="orth">    0.02    0.02</time>
   <time name="total">    1.37    1.38</time>
   <energy>
    <i name="e_fr_energy">    -67.13043930 </i>
    <i name="e_wo_entrp">    -67.13043930 </i>
    <i name="e_0_energy">    -67.13043930 </i>
   </energy>
  </scstep>
  <scstep>
   <time name="diag">    0.18    0.18</time>
   <time name="diis">    0.63    0.63</time>
   <time name="orth">    0.02    0.02</time>
   <time name="total">    1.33    1.34</time>
   <energy>
    <i name="e_fr_energy">    -67.12948241 </i>
    <i name="e_wo_entrp">    -67.12948241 </i>
    <i name="e_0_energy">    -67.12948241 </i>
   </energy>
  </scstep>
  <scstep>
   <time name="diag">    0.18    0.18</time>
   <time name="diis">    0.53    0.54</time>
   <time name="orth">    0.02    0.02</time>
   <time name="total">    1.20    1.21</time>
   <energy>
    <i name="alphaZ">    207.29600901 </i>
    <i name="ewald">  -4292.52741707 </i>
    <i name="hartreedc">  -1394.31605721 </i>
    <i name="XCdc">    258.47614141 </i>
    <i name="pawpsdc">   5885.51073394 </i>
    <i name="pawaedc">  -6074.43535655 </i>
    <i name="eentropy">      0.00000000 </i>
    <i name="bandstr">   -299.69260331 </i>
    <i name="atom">   5642.55902661 </i>
    <i name="e_fr_energy">    -67.12952318 </i>
    <i name="e_wo_entrp">    -67.12952318 </i>
    <i name="e_0_energy">    -67.12952318 </i>
   </energy>
  </scstep>
  <structure>
   <crystal>
    <varray name="basis" >
     <v>       2.90891714      -0.00000000       0.00000000 </v>
     <v>      -1.45445857       2.51919614       0.00000000 </v>
     <v>       0.00000000       0.00000000      14.36910185 </v>
    </varray>
    <i name="volume">    105.29868689 </i>
    <varray name="rec_basis" >
     <v>       0.34377053       0.19847601      -0.00000000 </v>
     <v>       0.00000000       0.39695202      -0.00000000 </v>
     <v>      -0.00000000      -0.00000000       0.06959377 </v>
    </varray>
   </crystal>
   <varray name="positions" >
    <v>      -0.00000000       0.00000000      -0.00000000 </v>
    <v>       0.66666667       0.33333333       0.33333333 </v>
    <v>       0.33333333       0.66666667       0.66666667 </v>
    <v>      -0.00000000       0.00000000       0.50000000 </v>
    <v>       0.66666667       0.33333333       0.83333333 </v>
    <v>       0.33333333       0.66666667       0.16666667 </v>
    <v>       0.00000000       0.00000000       0.24116705 </v>
    <v>      -0.00000000      -0.00000000       0.75883295 </v>
    <v>       0.66666667       0.33333333       0.57450039 </v>
    <v>       0.66666667       0.33333333       0.09216628 </v>
    <v>       0.33333333       0.66666667       0.90783372 </v>
    <v>       0.33333333       0.66666667       0.42549961 </v>
   </varray>
  </structure>
  <varray name="forces" >
   <v>       0.00000000       0.00000000      -0.00000000 </v>
   <v>       0.00000000       0.00000000       0.00000000 </v>
   <v>       0.00000000       0.00000000      -0.00000000 </v>
   <v>       0.00000000       0.00000000      -0.00000000 </v>
   <v>       0.00000000       0.00000000       0.00000000 </v>
   <v>       0.00000000       0.00000000       0.00000000 </v>
   <v>       0.00000000       0.00000000       0.11433449 </v>
   <v>      -0.00000000      -0.00000000      -0.11433449 </v>
   <v>       0.00000000       0.00000000       0.11433449 </v>
   <v>      -0.00000000      -0.00000000      -0.11433449 </v>
   <v>       0.00000000       0.00000000       0.11433449 </v>
   <v>      -0.00000000      -0.00000000      -0.11433449 </v>
  </varray>
  <varray name="stress" >
   <v>       6.89600814      -0.00000000      -0.00000000 </v>
   <v>      -0.00000000       6.89600814       0.00000000 </v>
   <v>       0.00000000      -0.00000000       2.42910784 </v>
  </varray>
  <energy>
   <i name="e_fr_energy">    -67.12952318 </i>
   <i name="e_wo_entrp">    -67.12952318 </i>
[...]
        <r>  0.0000  0.0015  0.1023  0.0045  0.0003  0.0021  0.0000  0.0007  0.0008 </r>
        <r>  0.0000  0.0015  0.1023  0.0045  0.0003  0.0021  0.0000  0.0007  0.0008 </r>
        <r>  0.0007  0.0065  0.0090  0.0058  0.0000  0.0000  0.0000  0.0000  0.0000 </r>
        <r>  0.0007  0.0065  0.0090  0.0058  0.0000  0.0000  0.0000  0.0000  0.0000 </r>
        <r>  0.0007  0.0065  0.0090  0.0058  0.0000  0.0000  0.0000  0.0000  0.0000 </r>
        <r>  0.0007  0.0065  0.0090  0.0058  0.0000  0.0000  0.0000  0.0000  0.0000 </r>
        <r>  0.0007  0.0065  0.0090  0.0058  0.0000  0.0000  0.0000  0.0000  0.0000 </r>
        <r>  0.0007  0.0065  0.0090  0.0058  0.0000  0.0000  0.0000  0.0000  0.0000 </r>
       </set>
       <set comment="band 65">
        <r>  0.0000  0.0253  0.0176  0.0102  0.0000  0.0000  0.0000  0.0000  0.0000 </r>
        <r>  0.0000  0.0659  0.0047  0.0102  0.0000  0.0000  0.0000  0.0000  0.0000 </r>
        <r>  0.0000  0.0598  0.0066  0.0102  0.0000  0.0000  0.0000  0.0000  0.0000 </r>
        <r>  0.0000  0.0025  0.1869  0.0010  0.0004  0.0005  0.0000  0.0012  0.0002 </r>
        <r>  0.0000  0.0065  0.0497  0.0010  0.0011  0.0005  0.0000  0.0031  0.0002 </r>
        <r>  0.0000  0.0059  0.0702  0.0010  0.0010  0.0005  0.0000  0.0028  0.0002 </r>
        <r>  0.0012  0.0041  0.0164  0.0044  0.0000  0.0000  0.0000  0.0000  0.0000 </r>
        <r>  0.0012  0.0028  0.0164  0.0032  0.0000  0.0000  0.0000  0.0000  0.0000 </r>
        <r>  0.0003  0.0107  0.0044  0.0119  0.0000  0.0000  0.0000  0.0000  0.0000 </r>
        <r>  0.0003  0.0037  0.0044  0.0049  0.0000  0.0000  0.0000  0.0000  0.0000 </r>
        <r>  0.0005  0.0025  0.0062  0.0036  0.0000  0.0000  0.0000  0.0000  0.0000 </r>
        <r>  0.0005  0.0107  0.0062  0.0118  0.0000  0.0000  0.0000  0.0000  0.0000 </r>
       </set>
       <set comment="band 66">
        <r>  0.0000  0.0504  0.0017  0.0352  0.0000  0.0000  0.0000  0.0000  0.0000 </r>
        <r>  0.0000  0.0098  0.0146  0.0352  0.0000  0.0000  0.0000  0.0000  0.0000 </r>
        <r>  0.0000  0.0159  0.0127  0.0352  0.0000  0.0000  0.0000  0.0000  0.0000 </r>
        <r>  0.0000  0.0050  0.0176  0.0035  0.0009  0.0016  0.0000  0.0023  0.0006 </r>
        <r>  0.0000  0.0010  0.1549  0.0035  0.0002  0.0016  0.0000  0.0005  0.0006 </r>
        <r>  0.0000  0.0016  0.1344  0.0035  0.0003  0.0016  0.0000  0.0007  0.0006 </r>
        <r>  0.0001  0.0079  0.0015  0.0083  0.0000  0.0000  0.0000  0.0000  0.0000 </r>
        <r>  0.0001  0.0092  0.0015  0.0095  0.0000  0.0000  0.0000  0.0000  0.0000 </r>
        <r>  0.0010  0.0014  0.0136  0.0008  0.0000  0.0000  0.0000  0.0000  0.0000 </r>
        <r>  0.0010  0.0084  0.0136  0.0078  0.0000  0.0000  0.0000  0.0000  0.0000 </r>
        <r>  0.0009  0.0095  0.0118  0.0091  0.0000  0.0000  0.0000  0.0000  0.0000 </r>
        <r>  0.0009  0.0013  0.0118  0.0009  0.0000  0.0000  0.0000  0.0000  0.0000 </r>
       </set>
       <set comment="band 67">
        <r>  0.0025  0.0393  0.0000  0.0131  0.0000  0.0000  0.0000  0.0000  0.0000 </r>
        <r>  0.0025  0.0393  0.0000  0.0131  0.0000  0.0000  0.0000  0.0000  0.0000 </r>
        <r>  0.0025  0.0393  0.0000  0.0131  0.0000  0.0000  0.0000  0.0000  0.0000 </r>
        <r>  0.0053  0.0096  0.0000  0.0032  0.0075  0.0069  0.0241  0.0206  0.0025 </r>
        <r>  0.0053  0.0096  0.0000  0.0032  0.0075  0.0069  0.0241  0.0206  0.0025 </r>
        <r>  0.0053  0.0096  0.0000  0.0032  0.0075  0.0069  0.0241  0.0206  0.0025 </r>
        <r>  0.0079  0.0001  0.0012  0.0001  0.0000  0.0000  0.0000  0.0000  0.0000 </r>
        <r>  0.0079  0.0001  0.0012  0.0001  0.0000  0.0000  0.0000  0.0000  0.0000 </r>
        <r>  0.0079  0.0001  0.0012  0.0001  0.0000  0.0000  0.0000  0.0000  0.0000 </r>
        <r>  0.0079  0.0001  0.0012  0.0001  0.0000  0.0000  0.0000  0.0000  0.0000 </r>
        <r>  0.0079  0.0001  0.0012  0.0001  0.0000  0.0000  0.0000  0.0000  0.0000 </r>
        <r>  0.0079  0.0001  0.0012  0.0001  0.0000  0.0000  0.0000  0.0000  0.0000 </r>
       </set>
       <set comment="band 68">
        <r>  0.0025  0.0000  0.0000  0.0524  0.0000  0.0000  0.0000  0.0000  0.0000 </r>
        <r>  0.0025  0.0000  0.0000  0.0524  0.0000  0.0000  0.0000  0.0000  0.0000 </r>
        <r>  0.0025  0.0000  0.0000  0.0525  0.0000  0.0000  0.0000  0.0000  0.0000 </r>
        <r>  0.0053  0.0000  0.0000  0.0128  0.0000  0.0275  0.0241  0.0000  0.0100 </r>
        <r>  0.0053  0.0000  0.0000  0.0128  0.0000  0.0275  0.0241  0.0000  0.0100 </r>
        <r>  0.0053  0.0000  0.0000  0.0128  0.0000  0.0275  0.0241  0.0000  0.0100 </r>
        <r>  0.0079  0.0000  0.0012  0.0002  0.0000  0.0000  0.0000  0.0000  0.0000 </r>
        <r>  0.0079  0.0000  0.0012  0.0002  0.0000  0.0000  0.0000  0.0000  0.0000 </r>
        <r>  0.0079  0.0000  0.0012  0.0002  0.0000  0.0000  0.0000  0.0000  0.0000 </r>
        <r>  0.0079  0.0000  0.0012  0.0002  0.0000  0.0000  0.0000  0.0000  0.0000 </r>
        <r>  0.0079  0.0000  0.0012  0.0002  0.0000  0.0000  0.0000  0.0000  0.0000 </r>
        <r>  0.0079  0.0000  0.0012  0.0002  0.0000  0.0000  0.0000  0.0000  0.0000 </r>
       </set>
       <set comment="band 69">
        <r>  0.0025  0.0393  0.0000  0.0131  0.0000  0.0000  0.0000  0.0000  0.0000 </r>
        <r>  0.0025  0.0393  0.0000  0.0131  0.0000  0.0000  0.0000  0.0000  0.0000 </r>
        <r>  0.0025  0.0393  0.0000  0.0131  0.0000  0.0000  0.0000  0.0000  0.0000 </r>
        <r>  0.0053  0.0096  0.0000  0.0032  0.0075  0.0069  0.0241  0.0206  0.0025 </r>
        <r>  0.0053  0.0096  0.0000  0.0032  0.0075  0.0069  0.0241  0.0206  0.0025 </r>
        <r>  0.0053  0.0096  0.0000  0.0032  0.0075  0.0069  0.0241  0.0206  0.0025 </r>
        <r>  0.0079  0.0001  0.0012  0.0001  0.0000  0.0000  0.0000  0.0000  0.0000 </r>
        <r>  0.0079  0.0001  0.0012  0.0001  0.0000  0.0000  0.0000  0.0000  0.0000 </r>
        <r>  0.0079  0.0001  0.0012  0.0001  0.0000  0.0000  0.0000  0.0000  0.0000 </r>
        <r>  0.0079  0.0001  0.0012  0.0001  0.0000  0.0000  0.0000  0.0000  0.0000 </r>
        <r>  0.0079  0.0001  0.0012  0.0001  0.0000  0.0000  0.0000  0.0000  0.0000 </r>
        <r>  0.0079  0.0001  0.0012  0.0001  0.0000  0.0000  0.0000  0.0000  0.0000 </r>
       </set>
       <set comment="band 70">
        <r>  0.0000  0.0020  0.0129  0.0057  0.0000  0.0000  0.0000  0.0000  0.0000 </r>
        <r>  0.0000  0.0019  0.0128  0.0058  0.0000  0.0000  0.0000  0.0000  0.0000 </r>
        <r>  0.0000  0.0019  0.0128  0.0058  0.0000  0.0000  0.0000  0.0000  0.0000 </r>
        <r>  0.0000  0.0054  0.0215  0.0155  0.0067  0.0385  0.0000  0.0135  0.0192 </r>
        <r>  0.0000  0.0052  0.0214  0.0158  0.0064  0.0393  0.0000  0.0128  0.0196 </r>
        <r>  0.0000  0.0051  0.0213  0.0159  0.0064  0.0395  0.0000  0.0128  0.0197 </r>
        <r>  0.0059  0.0011  0.0000  0.0005  0.0000  0.0000  0.0000  0.0000  0.0000 </r>
        <r>  0.0059  0.0011  0.0000  0.0005  0.0000  0.0000  0.0000  0.0000  0.0000 </r>
        <r>  0.0058  0.0011  0.0000  0.0005  0.0000  0.0000  0.0000  0.0000  0.0000 </r>
        <r>  0.0058  0.0011  0.0000  0.0004  0.0000  0.0000  0.0000  0.0000  0.0000 </r>
        <r>  0.0058  0.0011  0.0000  0.0004  0.0000  0.0000  0.0000  0.0000  0.0000 </r>
        <r>  0.0058  0.0011  0.0000  0.0004  0.0000  0.0000  0.0000  0.0000  0.0000 </r>
       </set>
       <set comment="band 71">
        <r>  0.0000  0.0028  0.0240  0.0015  0.0000  0.0000  0.0000  0.0000  0.0000 </r>
        <r>  0.0000  0.0083  0.0059  0.0015  0.0000  0.0000  0.0000  0.0000  0.0000 </r>
        <r>  0.0000  0.0074  0.0086  0.0015  0.0000  0.0000  0.0000  0.0000  0.0000 </r>
        <r>  0.0000  0.0077  0.0401  0.0041  0.0095  0.0103  0.0000  0.0191  0.0051 </r>
        <r>  0.0000  0.0225  0.0098  0.0041  0.0280  0.0103  0.0000  0.0560  0.0051 </r>
        <r>  0.0000  0.0203  0.0143  0.0041  0.0252  0.0103  0.0000  0.0505  0.0051 </r>
        <r>  0.0109  0.0004  0.0000  0.0006  0.0000  0.0000  0.0000  0.0000  0.0000 </r>
        <r>  0.0109  0.0003  0.0000  0.0005  0.0000  0.0000  0.0000  0.0000  0.0000 </r>
        <r>  0.0027  0.0007  0.0000  0.0019  0.0000  0.0000  0.0000  0.0000  0.0000 </r>
        <r>  0.0027  0.0002  0.0000  0.0014  0.0000  0.0000  0.0000  0.0000  0.0000 </r>
        <r>  0.0039  0.0001  0.0000  0.0012  0.0000  0.0000  0.0000  0.0000  0.0000 </r>
        <r>  0.0039  0.0007  0.0000  0.0017  0.0000  0.0000  0.0000  0.0000  0.0000 </r>
       </set>
       <set comment="band 72">
        <r>  0.0000  0.0067  0.0016  0.0043  0.0000  0.0000  0.0000  0.0000  0.0000 </r>
        <r>  0.0000  0.0014  0.0198  0.0042  0.0000  0.0000  0.0000  0.0000  0.0000 </r>
        <r>  0.0000  0.0022  0.0171  0.0042  0.0000  0.0000  0.0000  0.0000  0.0000 </r>
        <r>  0.0000  0.0183  0.0026  0.0118  0.0228  0.0294  0.0000  0.0456  0.0147 </r>
        <r>  0.0000  0.0038  0.0330  0.0115  0.0047  0.0286  0.0000  0.0094  0.0143 </r>
        <r>  0.0000  0.0060  0.0286  0.0114  0.0075  0.0285  0.0000  0.0150  0.0142 </r>
        <r>  0.0007  0.0009  0.0000  0.0013  0.0000  0.0000  0.0000  0.0000  0.0000 </r>
        <r>  0.0007  0.0010  0.0000  0.0014  0.0000  0.0000  0.0000  0.0000  0.0000 </r>
        <r>  0.0090  0.0006  0.0000  0.0001  0.0000  0.0000  0.0000  0.0000  0.0000 </r>
        <r>  0.0090  0.0011  0.0000  0.0006  0.0000  0.0000  0.0000  0.0000  0.0000 </r>
        <r>  0.0078  0.0011  0.0000  0.0008  0.0000  0.0000  0.0000  0.0000  0.0000 </r>
        <r>  0.0078  0.0006  0.0000  0.0002  0.0000  0.0000  0.0000  0.0000  0.0000 </r>
       </set>
       <set comment="band 73">
        <r>  0.0040  0.0000  0.0000  0.0385  0.0000  0.0000  0.0000  0.0000  0.0000 </r>
        <r>  0.0043  0.0000  0.0000  0.0373  0.0000  0.0000  0.0000  0.0000  0.0000 </r>
        <r>  0.0043  0.0000  0.0000  0.0375  0.0000  0.0000  0.0000  0.0000  0.0000 </r>
        <r>  0.0008  0.0000  0.0000  0.0483  0.0000  0.0227  0.0290  0.0000  0.0136 </r>
        <r>  0.0009  0.0000  0.0000  0.0468  0.0000  0.0220  0.0309  0.0000  0.0132 </r>
        <r>  0.0009  0.0000  0.0000  0.0470  0.0000  0.0221  0.0306  0.0000  0.0133 </r>
        <r>  0.0015  0.0011  0.0066  0.0001  0.0000  0.0000  0.0000  0.0000  0.0000 </r>
        <r>  0.0015  0.0011  0.0066  0.0001  0.0000  0.0000  0.0000  0.0000  0.0000 </r>
        <r>  0.0015  0.0011  0.0071  0.0001  0.0000  0.0000  0.0000  0.0000  0.0000 </r>
        <r>  0.0015  0.0011  0.0071  0.0001  0.0000  0.0000  0.0000  0.0000  0.0000 </r>
        <r>  0.0015  0.0011  0.0070  0.0001  0.0000  0.0000  0.0000  0.0000  0.0000 </r>
        <r>  0.0015  0.0011  0.0070  0.0001  0.0000  0.0000  0.0000  0.0000  0.0000 </r>
       </set>
       <set comment="band 74">
        <r>  0.0044  0.0283  0.0000  0.0087  0.0000  0.0000  0.0000  0.0000  0.0000 </r>
        <r>  0.0041  0.0283  0.0000  0.0099  0.0000  0.0000  0.0000  0.0000  0.0000 </r>
        <r>  0.0041  0.0283  0.0000  0.0097  0.0000  0.0000  0.0000  0.0000  0.0000 </r>
        <r>  0.0009  0.0355  0.0000  0.0110  0.0100  0.0051  0.0313  0.0167  0.0031 </r>
        <r>  0.0009  0.0355  0.0000  0.0124  0.0100  0.0058  0.0295  0.0167  0.0035 </r>
        <r>  0.0009  0.0355  0.0000  0.0122  0.0100  0.0057  0.0297  0.0167  0.0034 </r>
        <r>  0.0016  0.0003  0.0072  0.0008  0.0000  0.0000  0.0000  0.0000  0.0000 </r>
        <r>  0.0016  0.0003  0.0072  0.0008  0.0000  0.0000  0.0000  0.0000  0.0000 </r>
        <r>  0.0015  0.0004  0.0067  0.0008  0.0000  0.0000  0.0000  0.0000  0.0000 </r>
        <r>  0.0015  0.0004  0.0067  0.0009  0.0000  0.0000  0.0000  0.0000  0.0000 </r>
        <r>  0.0015  0.0004  0.0068  0.0009  0.0000  0.0000  0.0000  0.0000  0.0000 </r>
        <r>  0.0015  0.0003  0.0068  0.0008  0.0000  0.0000  0.0000  0.0000  0.0000 </r>
       </set>
       <set comment="band 75">
        <r>  0.0042  0.0283  0.0000  0.0094  0.0000  0.0000  0.0000  0.0000  0.0000 </r>
        <r>  0.0042  0.0283  0.0000  0.0094  0.0000  0.0000  0.0000  0.0000  0.0000 </r>
        <r>  0.0042  0.0283  0.0000  0.0094  0.0000  0.0000  0.0000  0.0000  0.0000 </r>
        <r>  0.0009  0.0355  0.0000  0.0118  0.0100  0.0056  0.0302  0.0167  0.0033 </r>
        <r>  0.0009  0.0355  0.0000  0.0118  0.0100  0.0056  0.0302  0.0167  0.0033 </r>
        <r>  0.0009  0.0355  0.0000  0.0118  0.0100  0.0056  0.0302  0.0167  0.0033 </r>
        <r>  0.0015  0.0004  0.0069  0.0008  0.0000  0.0000  0.0000  0.0000  0.0000 </r>
        <r>  0.0015  0.0004  0.0069  0.0008  0.0000  0.0000  0.0000  0.0000  0.0000 </r>
        <r>  0.0015  0.0004  0.0069  0.0008  0.0000  0.0000  0.0000  0.0000  0.0000 </r>
        <r>  0.0015  0.0004  0.0069  0.0008  0.0000  0.0000  0.0000  0.0000  0.0000 </r>
        <r>  0.0015  0.0004  0.0069  0.0008  0.0000  0.0000  0.0000  0.0000  0.0000 </r>
        <r>  0.0015  0.0004  0.0069  0.0008  0.0000  0.0000  0.0000  0.0000  0.0000 </r>
       </set>
       <set comment="band 76">
        <r>  0.0013  0.0034  0.0000  0.0011  0.0000  0.0000  0.0000  0.0000  0.0000 </r>
        <r>  0.0013  0.0034  0.0000  0.0011  0.0000  0.0000  0.0000  0.0000  0.0000 </r>
        <r>  0.0013  0.0034  0.0000  0.0011  0.0000  0.0000  0.0000  0.0000  0.0000 </r>
        <r>  0.0003  0.0020  0.0000  0.0007  0.0043  0.0017  0.0158  0.0051  0.0014 </r>
        <r>  0.0003  0.0020  0.0000  0.0007  0.0043  0.0017  0.0158  0.0051  0.0014 </r>
        <r>  0.0003  0.0020  0.0000  0.0007  0.0043  0.0017  0.0158  0.0051  0.0014 </r>
        <r>  0.0002  0.0000  0.0005  0.0000  0.0000  0.0000  0.0000  0.0000  0.0000 </r>
        <r>  0.0002  0.0000  0.0005  0.0000  0.0000  0.0000  0.0000  0.0000  0.0000 </r>
        <r>  0.0002  0.0000  0.0005  0.0000  0.0000  0.0000  0.0000  0.0000  0.0000 </r>
        <r>  0.0002  0.0000  0.0005  0.0000  0.0000  0.0000  0.0000  0.0000  0.0000 </r>
        <r>  0.0002  0.0000  0.0005  0.0000  0.0000  0.0000  0.0000  0.0000  0.0000 </r>
        <r>  0.0002  0.0000  0.0005  0.0000  0.0000  0.0000  0.0000  0.0000  0.0000 </r>
       </set>
       <set comment="band 77">
        <r>  0.0013  0.0000  0.0000  0.0046  0.0000  0.0000  0.0000  0.0000  0.0000 </r>
        <r>  0.0013  0.0000  0.0000  0.0044  0.0000  0.0000  0.0000  0.0000  0.0000 </r>
        <r>  0.0013  0.0000  0.0000  0.0045  0.0000  0.0000  0.0000  0.0000  0.0000 </r>
        <r>  0.0003  0.0000  0.0000  0.0027  0.0000  0.0068  0.0153  0.0000  0.0058 </r>
        <r>  0.0003  0.0000  0.0000  0.0026  0.0000  0.0067  0.0161  0.0000  0.0057 </r>
        <r>  0.0003  0.0000  0.0000  0.0026  0.0000  0.0067  0.0160  0.0000  0.0057 </r>
        <r>  0.0002  0.0001  0.0005  0.0000  0.0000  0.0000  0.0000  0.0000  0.0000 </r>
        <r>  0.0002  0.0001  0.0005  0.0000  0.0000  0.0000  0.0000  0.0000  0.0000 </r>
        <r>  0.0002  0.0000  0.0005  0.0000  0.0000  0.0000  0.0000  0.0000  0.0000 </r>
        <r>  0.0002  0.0000  0.0005  0.0000  0.0000  0.0000  0.0000  0.0000  0.0000 </r>
        <r>  0.0002  0.0000  0.0005  0.0000  0.0000  0.0000  0.0000  0.0000  0.0000 </r>
        <r>  0.0002  0.0000  0.0005  0.0000  0.0000  0.0000  0.0000  0.0000  0.0000 </r>
       </set>
       <set comment="band 78">
        <r>  0.0013  0.0034  0.0000  0.0011  0.0000  0.0000  0.0000  0.0000  0.0000 </r>
        <r>  0.0013  0.0034  0.0000  0.0012  0.0000  0.0000  0.0000  0.0000  0.0000 </r>
        <r>  0.0013  0.0034  0.0000  0.0012  0.0000  0.0000  0.0000  0.0000  0.0000 </r>
        <r>  0.0003  0.0020  0.0000  0.0006  0.0043  0.0016  0.0163  0.0051  0.0013 </r>
        <r>  0.0003  0.0020  0.0000  0.0007  0.0043  0.0018  0.0155  0.0051  0.0015 </r>
        <r>  0.0003  0.0020  0.0000  0.0007  0.0043  0.0017  0.0156  0.0051  0.0015 </r>
        <r>  0.0002  0.0000  0.0006  0.0000  0.0000  0.0000  0.0000  0.0000  0.0000 </r>
        <r>  0.0002  0.0000  0.0006  0.0000  0.0000  0.0000  0.0000  0.0000  0.0000 </r>
        <r>  0.0002  0.0000  0.0005  0.0000  0.0000  0.0000  0.0000  0.0000  0.0000 </r>
        <r>  0.0002  0.0000  0.0005  0.0000  0.0000  0.0000  0.0000  0.0000  0.0000 </r>
        <r>  0.0002  0.0000  0.0005  0.0000  0.0000  0.0000  0.0000  0.0000  0.0000 </r>
        <r>  0.0002  0.0000  0.0005  0.0000  0.0000  0.0000  0.0000  0.0000  0.0000 </r>
       </set>
       <set comment="band 79">
        <r>  0.0000  0.0972  0.0429  0.0240  0.0000  0.0000  0.0000  0.0000  0.0000 </r>
        <r>  0.0000  0.0080  0.0429  0.1132  0.0000  0.0000  0.0000  0.0000  0.0000 </r>
        <r>  0.0000  0.0057  0.0329  0.1316  0.0000  0.0000  0.0000  0.0000  0.0000 </r>
        <r>  0.0000  0.0228  0.0247  0.0056  0.0163  0.0038  0.0000  0.0152  0.0040 </r>
        <r>  0.0000  0.0019  0.0247  0.0265  0.0013  0.0177  0.0000  0.0013  0.0190 </r>
        <r>  0.0000  0.0013  0.0189  0.0308  0.0010  0.0206  0.0000  0.0009  0.0221 </r>
        <r>  0.0014  0.0030  0.0009  0.0011  0.0000  0.0000  0.0000  0.0000  0.0000 </r>
        <r>  0.0014  0.0034  0.0009  0.0015  0.0000  0.0000  0.0000  0.0000  0.0000 </r>
        <r>  0.0014  0.0011  0.0009  0.0038  0.0000  0.0000  0.0000  0.0000  0.0000 </r>
        <r>  0.0014  0.0007  0.0009  0.0034  0.0000  0.0000  0.0000  0.0000  0.0000 </r>
        <r>  0.0011  0.0010  0.0007  0.0041  0.0000  0.0000  0.0000  0.0000  0.0000 </r>
        <r>  0.0011  0.0010  0.0007  0.0041  0.0000  0.0000  0.0000  0.0000  0.0000 </r>
       </set>
       <set comment="band 80">
        <r>  0.0000  0.0460  0.0742  0.0252  0.0000  0.0000  0.0000  0.0000  0.0000 </r>
        <r>  0.0000  0.1357  0.0181  0.0252  0.0000  0.0000  0.0000  0.0000  0.0000 </r>
        <r>  0.0000  0.1223  0.0264  0.0252  0.0000  0.0000  0.0000  0.0000  0.0000 </r>
        <r>  0.0000  0.0108  0.0427  0.0059  0.0077  0.0039  0.0000  0.0072  0.0042 </r>
        <r>  0.0000  0.0318  0.0104  0.0059  0.0228  0.0039  0.0000  0.0212  0.0042 </r>
        <r>  0.0000  0.0287  0.0152  0.0059  0.0205  0.0039  0.0000  0.0191  0.0042 </r>
        <r>  0.0024  0.0018  0.0016  0.0012  0.0000  0.0000  0.0000  0.0000  0.0000 </r>
        <r>  0.0024  0.0014  0.0016  0.0009  0.0000  0.0000  0.0000  0.0000  0.0000 </r>
        <r>  0.0006  0.0054  0.0004  0.0026  0.0000  0.0000  0.0000  0.0000  0.0000 </r>
        <r>  0.0006  0.0033  0.0004  0.0006  0.0000  0.0000  0.0000  0.0000  0.0000 </r>
        <r>  0.0008  0.0027  0.0006  0.0003  0.0000  0.0000  0.0000  0.0000  0.0000 </r>
        <r>  0.0008  0.0052  0.0006  0.0027  0.0000  0.0000  0.0000  0.0000  0.0000 </r>
       </set>
      </set>
     </set>
    </set>
   </array>
  </projected>
 </calculation>
 <structure name="finalpos" >
  <crystal>
   <varray name="basis" >
    <v>       2.91311286      -0.00000000       0.00000000 </v>
    <v>      -1.45655643       2.52282974      -0.00000000 </v>
    <v>       0.00000000       0.00000000      14.37187460 </v>
   </varray>
   <i name="volume">    105.62304234 </i>
   <varray name="rec_basis" >
    <v>       0.34327541       0.19819015      -0.00000000 </v>
    <v>       0.00000000       0.39638030      -0.00000000 </v>
    <v>      -0.00000000      -0.00000000       0.06958035 </v>
   </varray>
  </crystal>
  <varray name="positions" >
   <v>      -0.00000000      -0.00000000      -0.00000000 </v>
   <v>       0.66666667       0.33333333       0.33333333 </v>
   <v>       0.33333333       0.66666667       0.66666667 </v>
   <v>      -0.00000000      -0.00000000       0.50000000 </v>
   <v>       0.66666667       0.33333333       0.83333333 </v>
   <v>       0.33333333       0.66666667       0.16666667 </v>
   <v>       0.00000000       0.00000000       0.24153305 </v>
   <v>      -0.00000000      -0.00000000       0.75846695 </v>
   <v>       0.66666667       0.33333333       0.57486638 </v>
   <v>       0.66666667       0.33333333       0.09180029 </v>
   <v>       0.33333333       0.66666667       0.90819971 </v>
   <v>       0.33333333       0.66666667       0.42513362 </v>
  </varray>
 </structure>
</modeling>
