unknown system                          
           1
     2.815000    0.000000    0.000000
    -1.407500    2.437862    0.000000
     0.000000    0.000000   14.052000
   Li   Co   O 
   3   3   6
Direct configuration=     1
   0.00000000  0.00000000  0.00000000
   0.66666667  0.33333333  0.33333333
   0.33333333  0.66666667  0.66666667
   0.00000000  0.00000000  0.50000000
   0.66666667  0.33333333  0.83333333
   0.33333333  0.66666667  0.16666667
   0.00000000  0.00000000  0.26160000
   0.00000000  0.00000000  0.73840000
   0.66666667  0.33333333  0.59493333
   0.66666667  0.33333333  0.07173333
   0.33333333  0.66666667  0.92826667
   0.33333333  0.66666667  0.40506667
unknown system                          
           1
     2.892274    0.000000    0.000000
    -1.446137    2.504782   -0.000000
     0.000000    0.000000   13.818670
   Li   Co   O 
   3   3   6
Direct configuration=     2
   0.00000000 -0.00000000 -0.00000000
   0.66666667  0.33333333  0.33333333
   0.33333333  0.66666667  0.66666667
   0.00000000 -0.00000000  0.50000000
   0.66666667  0.33333333  0.83333333
   0.33333333  0.66666667  0.16666667
  -0.00000000  0.00000000  0.24997042
   0.00000000 -0.00000000  0.75002958
   0.66666667  0.33333333  0.58330375
   0.66666667  0.33333333  0.08336292
   0.33333333  0.66666667  0.91663708
   0.33333333  0.66666667  0.41669625
unknown system                          
           1
     2.941783    0.000000    0.000000
    -1.470891    2.547659   -0.000000
     0.000000    0.000000   13.669177
   Li   Co   O 
   3   3   6
Direct configuration=     3
   0.00000000 -0.00000000 -0.00000000
   0.66666667  0.33333333  0.33333333
   0.33333333  0.66666667  0.66666667
   0.00000000 -0.00000000  0.50000000
   0.66666667  0.33333333  0.83333333
   0.33333333  0.66666667  0.16666667
   0.00000000  0.00000000  0.24239355
  -0.00000000 -0.00000000  0.75760645
   0.66666667  0.33333333  0.57572688
   0.66666667  0.33333333  0.09093979
   0.33333333  0.66666667  0.90906021
   0.33333333  0.66666667  0.42427312
unknown system                          
           1
     2.935582    0.000000    0.000000
    -1.467791    2.542289   -0.000000
     0.000000    0.000000   13.687900
   Li   Co   O 
   3   3   6
Direct configuration=     4
   0.00000000 -0.00000000 -0.00000000
   0.66666667  0.33333333  0.33333333
   0.33333333  0.66666667  0.66666667
   0.00000000 -0.00000000  0.50000000
   0.66666667  0.33333333  0.83333333
   0.33333333  0.66666667  0.16666667
   0.00000000  0.00000000  0.24335288
  -0.00000000 -0.00000000  0.75664712
   0.66666667  0.33333333  0.57668621
   0.66666667  0.33333333  0.08998045
   0.33333333  0.66666667  0.91001955
   0.33333333  0.66666667  0.42331379
unknown system                          
           1
     2.935790    0.000000    0.000000
    -1.467895    2.542469   -0.000000
     0.000000    0.000000   13.982547
   Li   Co   O 
   3   3   6
Direct configuration=     5
  -0.00000000  0.00000000 -0.00000000
   0.66666667  0.33333333  0.33333333
   0.33333333  0.66666667  0.66666667
  -0.00000000  0.00000000  0.50000000
   0.66666667  0.33333333  0.83333333
   0.33333333  0.66666667  0.16666667
   0.00000000  0.00000000  0.24263540
  -0.00000000 -0.00000000  0.75736460
   0.66666667  0.33333333  0.57596873
   0.66666667  0.33333333  0.09069793
   0.33333333  0.66666667  0.90930207
   0.33333333  0.66666667  0.42403127
unknown system                          
           1
     2.935905    0.000000    0.000000
    -1.467952    2.542568   -0.000000
     0.000000    0.000000   14.145292
   Li   Co   O 
   3   3   6
Direct configuration=     6
  -0.00000000  0.00000000 -0.00000000
   0.66666667  0.33333333  0.33333333
   0.33333333  0.66666667  0.66666667
  -0.00000000  0.00000000  0.50000000
   0.66666667  0.33333333  0.83333333
   0.33333333  0.66666667  0.16666667
   0.00000000  0.00000000  0.24224746
  -0.00000000 -0.00000000  0.75775254
   0.66666667  0.33333333  0.57558079
   0.66666667  0.33333333  0.09108587
   0.33333333  0.66666667  0.90891413
   0.33333333  0.66666667  0.42441921
unknown system                          
           1
     2.936135    0.000000    0.000000
    -1.468067    2.542767    0.000000
     0.000000    0.000000   14.470782
   Li   Co   O 
   3   3   6
Direct configuration=     7
  -0.00000000  0.00000000 -0.00000000
   0.66666667  0.33333333  0.33333333
   0.33333333  0.66666667  0.66666667
  -0.00000000  0.00000000  0.50000000
   0.66666667  0.33333333  0.83333333
   0.33333333  0.66666667  0.16666667
   0.00000000  0.00000000  0.24148050
  -0.00000000 -0.00000000  0.75851950
   0.66666667  0.33333333  0.57481384
   0.66666667  0.33333333  0.09185283
   0.33333333  0.66666667  0.90814717
   0.33333333  0.66666667  0.42518616
unknown system                          
           1
     2.936005    0.000000    0.000000
    -1.468003    2.542655   -0.000000
     0.000000    0.000000   14.287269
   Li   Co   O 
   3   3   6
Direct configuration=     8
  -0.00000000  0.00000000 -0.00000000
   0.66666667  0.33333333  0.33333333
   0.33333333  0.66666667  0.66666667
  -0.00000000  0.00000000  0.50000000
   0.66666667  0.33333333  0.83333333
   0.33333333  0.66666667  0.16666667
   0.00000000  0.00000000  0.24190319
  -0.00000000 -0.00000000  0.75809681
   0.66666667  0.33333333  0.57523652
   0.66666667  0.33333333  0.09143014
   0.33333333  0.66666667  0.90856986
   0.33333333  0.66666667  0.42476348
unknown system                          
           1
     2.908917   -0.000000    0.000000
    -1.454459    2.519196    0.000000
     0.000000    0.000000   14.369102
   Li   Co   O 
   3   3   6
Direct configuration=     9
  -0.00000000  0.00000000 -0.00000000
   0.66666667  0.33333333  0.33333333
   0.33333333  0.66666667  0.66666667
  -0.00000000  0.00000000  0.50000000
   0.66666667  0.33333333  0.83333333
   0.33333333  0.66666667  0.16666667
   0.00000000  0.00000000  0.24116705
  -0.00000000 -0.00000000  0.75883295
   0.66666667  0.33333333  0.57450039
   0.66666667  0.33333333  0.09216628
   0.33333333  0.66666667  0.90783372
   0.33333333  0.66666667  0.42549961
unknown system                          
           1
     2.916138   -0.000000    0.000000
    -1.458069    2.525450    0.000000
     0.000000    0.000000   14.347287
   Li   Co   O 
   3   3   6
Direct configuration=    10
  -0.00000000  0.00000000 -0.00000000
   0.66666667  0.33333333  0.33333333
   0.33333333  0.66666667  0.66666667
  -0.00000000  0.00000000  0.50000000
   0.66666667  0.33333333  0.83333333
   0.33333333  0.66666667  0.16666667
   0.00000000  0.00000000  0.24136217
  -0.00000000 -0.00000000  0.75863783
   0.66666667  0.33333333  0.57469551
   0.66666667  0.33333333  0.09197116
   0.33333333  0.66666667  0.90802884
   0.33333333  0.66666667  0.42530449
unknown system                          
           1
     2.913272   -0.000000    0.000000
    -1.456636    2.522968   -0.000000
     0.000000    0.000000   14.370582
   Li   Co   O 
   3   3   6
Direct configuration=    11
  -0.00000000 -0.00000000 -0.00000000
   0.66666667  0.33333333  0.33333333
   0.33333333  0.66666667  0.66666667
  -0.00000000 -0.00000000  0.50000000
   0.66666667  0.33333333  0.83333333
   0.33333333  0.66666667  0.16666667
   0.00000000  0.00000000  0.24152407
  -0.00000000 -0.00000000  0.75847593
   0.66666667  0.33333333  0.57485741
   0.66666667  0.33333333  0.09180926
   0.33333333  0.66666667  0.90819074
   0.33333333  0.66666667  0.42514259
unknown system                          
           1
     2.913113   -0.000000    0.000000
    -1.456556    2.522830   -0.000000
     0.000000    0.000000   14.371875
   Li   Co   O 
   3   3   6
Direct configuration=    12
  -0.00000000 -0.00000000 -0.00000000
   0.66666667  0.33333333  0.33333333
   0.33333333  0.66666667  0.66666667
  -0.00000000 -0.00000000  0.50000000
   0.66666667  0.33333333  0.83333333
   0.33333333  0.66666667  0.16666667
   0.00000000  0.00000000  0.24153305
  -0.00000000 -0.00000000  0.75846695
   0.66666667  0.33333333  0.57486638
   0.66666667  0.33333333  0.09180029
   0.33333333  0.66666667  0.90819971
   0.33333333  0.66666667  0.42513362
