LAMMPS (23 Jun 2022 - Update 4)
units		metal
dimension	3
boundary	p p p
atom_style	full
newton on
variable    	dt equal 0.0005

#Read in Bottom Atoms
read_data	structure.txt
Reading data file ...
  triclinic box = (0 0 0) to (13.18 11.414215 20) with tilt (6.59 0 0)
  1 by 1 by 1 MPI processor grid
  reading atoms ...
  46 atoms
Finding 1-2 1-3 1-4 neighbors ...
  special bond factors lj:    0        0        0       
  special bond factors coul:  0        0        0       
     0 = max # of 1-2 neighbors
     0 = max # of 1-3 neighbors
     0 = max # of 1-4 neighbors
     1 = max # of special neighbors
  special bonds CPU = 0.000 seconds
  read_data CPU = 0.003 seconds

# defining some group
group upper type 3 4
0 atoms in group upper
group lower type 1 2
46 atoms in group lower



# ------Force Fields --------
# Interaction potential for carbon atoms
######################## Potential defition ########################
pair_style sw/mod maxdelcs 0.25 0.35
pair_coeff * * tmd.sw.mod W Se
Reading sw potential file tmd.sw.mod with DATE: 2018-03-26
####################################################################

neighbor		2.0 bin
neigh_modify	delay 0 one 10000

delete_atoms overlap 0.4 all all
System init for delete_atoms ...
Neighbor list info ...
  update every 1 steps, delay 0 steps, check yes
  max neighbors/atom: 10000, page size: 100000
  master list distance cutoff = 5.310434
  ghost atom cutoff = 5.310434
  binsize = 2.655217, bins = 8 5 8
  2 neighbor lists, perpetual/occasional/extra = 1 1 0
  (1) command delete_atoms, occasional, copy from (2)
      attributes: full, newton on
      pair build: copy
      stencil: none
      bin: none
  (2) pair sw/mod, perpetual
      attributes: full, newton on
      pair build: full/bin
      stencil: full/bin/3d
      bin: standard
Neighbor list info ...
  update every 1 steps, delay 0 steps, check yes
  max neighbors/atom: 10000, page size: 100000
  master list distance cutoff = 5.310434
  ghost atom cutoff = 5.310434
  binsize = 2.655217, bins = 8 5 8
  0 neighbor lists, perpetual/occasional/extra = 0 0 0
WARNING: Ignoring 'compress yes' for molecular system (../delete_atoms.cpp:140)
Deleted 0 atoms, new total = 46


compute csym all centro/atom 12
compute mytemp all temp
compute 2 all stress/atom mytemp
compute 21 all reduce sum c_2[1]
compute 22 all reduce sum c_2[2]
compute 23 all reduce sum c_2[3]
compute 24 all reduce sum c_2[4]
compute 25 all reduce sum c_2[5]
compute 26 all reduce sum c_2[6]

compute 3 all pe/atom
compute 4 all reduce sum c_3
compute 6 all pair sw/mod





timestep	0.0005

thermo         100
thermo_style   custom step pe ke etotal temp c_mytemp c_6

fix            cal_nve all nve



dump           mydump2 all custom 50 minimize.dump id type x y z c_csym c_2[1] c_2[2] c_2[3] c_2[4] c_2[5] c_2[6] c_3

minimize       1e-11 1e-12 5000 10000000
Neighbor list info ...
  update every 1 steps, delay 0 steps, check yes
  max neighbors/atom: 10000, page size: 100000
  master list distance cutoff = 5.310434
  ghost atom cutoff = 5.310434
  binsize = 2.655217, bins = 8 5 8
  2 neighbor lists, perpetual/occasional/extra = 1 1 0
  (1) pair sw/mod, perpetual
      attributes: full, newton on
      pair build: full/bin
      stencil: full/bin/3d
      bin: standard
  (2) compute centro/atom, occasional, copy from (1)
      attributes: full, newton on
      pair build: copy
      stencil: none
      bin: none
Per MPI rank memory allocation (min/avg/max) = 10.64 | 10.64 | 10.64 Mbytes
   Step         PotEng         KinEng         TotEng          Temp         c_mytemp         c_6      
         0  -7.8911812      0             -7.8911812      0              0             -7.8911812    
         9  -71.087091      0             -71.087091      0              0             -71.087091    
Loop time of 0.00209833 on 1 procs for 9 steps with 46 atoms

85.6% CPU use with 1 MPI tasks x no OpenMP threads

Minimization stats:
  Stopping criterion = linesearch alpha is zero
  Energy initial, next-to-last, final = 
     -7.89118115109423  -71.0870907544162  -71.0870907544162
  Force two-norm initial, final = 50.191443 0.4017213
  Force max component initial, final = 7.6747761 0.0718636
  Final line search alpha, max atom move = 4.44889e-08 3.1971325e-09
  Iterations, force evaluations = 9 60

MPI task timing breakdown:
Section |  min time  |  avg time  |  max time  |%varavg| %total
---------------------------------------------------------------
Pair    | 0.001476   | 0.001476   | 0.001476   |   0.0 | 70.34
Bond    | 4.817e-06  | 4.817e-06  | 4.817e-06  |   0.0 |  0.23
Neigh   | 0          | 0          | 0          |   0.0 |  0.00
Comm    | 5.0149e-05 | 5.0149e-05 | 5.0149e-05 |   0.0 |  2.39
Output  | 0          | 0          | 0          |   0.0 |  0.00
Modify  | 0          | 0          | 0          |   0.0 |  0.00
Other   |            | 0.0005673  |            |       | 27.04

Nlocal:             46 ave          46 max          46 min
Histogram: 1 0 0 0 0 0 0 0 0 0
Nghost:            123 ave         123 max         123 min
Histogram: 1 0 0 0 0 0 0 0 0 0
Neighs:              0 ave           0 max           0 min
Histogram: 1 0 0 0 0 0 0 0 0 0
FullNghs:          974 ave         974 max         974 min
Histogram: 1 0 0 0 0 0 0 0 0 0

Total # of neighbors = 974
Ave neighs/atom = 21.173913
Ave special neighs/atom = 0
Neighbor list builds = 0
Dangerous builds = 0

unfix cal_nve
undump mydump2
Total wall time: 0:00:00
