ITEM: TIMESTEP
0
ITEM: NUMBER OF ATOMS
46
ITEM: BOX BOUNDS xy xz yz pp pp pp
0.0000000000000000e+00 1.9770000000000000e+01 6.5899999999999999e+00
0.0000000000000000e+00 1.1414214821900000e+01 0.0000000000000000e+00
0.0000000000000000e+00 2.0000000000000000e+01 0.0000000000000000e+00
ITEM: ATOMS id type x y z c_csym c_2[1] c_2[2] c_2[3] c_2[4] c_2[5] c_2[6] c_3
1 1 0 0 10 3.68696 -889506 -2.66852e+06 -1.82006e+07 1.54067e+06 -6.9071e+06 1.19635e+07 -0.299296
2 1 14.8275 2.85355 10 3.68696 -562795 -1.68838e+06 -8.37299e+06 974789 -3.61105e+06 6.25452e+06 -0.176765
3 1 3.295 5.70711 10 3e-20 -889506 -2.66852e+06 -1.82006e+07 1.54067e+06 -6.9071e+06 1.19635e+07 -0.299296
4 1 4.9425 8.56066 10 1.26218e-29 -889506 -2.66852e+06 -1.82006e+07 1.54067e+06 -6.9071e+06 1.19635e+07 -0.299296
5 1 3.295 0 10 3.68696 -562795 -1.68838e+06 -8.37299e+06 974789 -3.61105e+06 6.25452e+06 -0.176765
6 1 4.9425 2.85355 10 3.68696 -889506 -2.66852e+06 -1.82006e+07 1.54067e+06 -6.9071e+06 1.19635e+07 -0.299296
7 1 6.59 5.70711 10 3e-20 -889506 -2.66852e+06 -1.82006e+07 1.54067e+06 -6.9071e+06 1.19635e+07 -0.299296
8 1 8.2375 8.56066 10 2.52435e-29 -889506 -2.66852e+06 -1.82006e+07 1.54067e+06 -6.9071e+06 1.19635e+07 -0.299296
9 1 6.59 0 10 3.82105e-30 -889506 -2.66852e+06 -1.82006e+07 1.54067e+06 -6.9071e+06 1.19635e+07 -0.299296
10 1 8.2375 2.85355 10 3e-20 -889506 -2.66852e+06 -1.82006e+07 1.54067e+06 -6.9071e+06 1.19635e+07 -0.299296
11 1 9.885 5.70711 10 3e-20 -889506 -2.66852e+06 -1.82006e+07 1.54067e+06 -6.9071e+06 1.19635e+07 -0.299296
12 1 11.5325 8.56066 10 1.26218e-29 -889506 -2.66852e+06 -1.82006e+07 1.54067e+06 -6.9071e+06 1.19635e+07 -0.299296
13 1 9.885 0 10 2.59092e-29 -889506 -2.66852e+06 -1.82006e+07 1.54067e+06 -6.9071e+06 1.19635e+07 -0.299296
14 1 11.5325 2.85355 10 3e-20 -889506 -2.66852e+06 -1.82006e+07 1.54067e+06 -6.9071e+06 1.19635e+07 -0.299296
15 1 13.18 5.70711 10 3e-20 -889506 -2.66852e+06 -1.82006e+07 1.54067e+06 -6.9071e+06 1.19635e+07 -0.299296
16 1 14.8275 8.56066 10 3.78653e-29 -889506 -2.66852e+06 -1.82006e+07 1.54067e+06 -6.9071e+06 1.19635e+07 -0.299296
17 2 3.84417 4.75592 11.575 0 -680299 -2.0409e+06 -8.55026e+06 1.17831e+06 -3.50629e+06 6.07308e+06 -0.107968
18 2 4.39333 3.80474 8.425 0 -680299 -2.0409e+06 -8.55026e+06 1.17831e+06 -3.50629e+06 6.07308e+06 -0.107968
19 2 5.49167 7.60948 11.575 0 -680299 -2.0409e+06 -8.55026e+06 1.17831e+06 -3.50629e+06 6.07308e+06 -0.107968
20 2 6.04083 6.65829 8.425 0 -680299 -2.0409e+06 -8.55026e+06 1.17831e+06 -3.50629e+06 6.07308e+06 -0.107968
21 2 7.13917 10.463 11.575 0 -680299 -2.0409e+06 -8.55026e+06 1.17831e+06 -3.50629e+06 6.07308e+06 -0.107968
22 2 7.68833 9.51185 8.425 0 -680299 -2.0409e+06 -8.55026e+06 1.17831e+06 -3.50629e+06 6.07308e+06 -0.107968
23 2 5.49167 1.90237 11.575 0 -680299 -2.0409e+06 -8.55026e+06 1.17831e+06 -3.50629e+06 6.07308e+06 -0.107968
24 2 6.04083 0.951185 8.425 0 -680299 -2.0409e+06 -8.55026e+06 1.17831e+06 -3.50629e+06 6.07308e+06 -0.107968
25 2 7.13917 4.75592 11.575 0 -680299 -2.0409e+06 -8.55026e+06 1.17831e+06 -3.50629e+06 6.07308e+06 -0.107968
26 2 7.68833 3.80474 8.425 0 -680299 -2.0409e+06 -8.55026e+06 1.17831e+06 -3.50629e+06 6.07308e+06 -0.107968
27 2 8.78667 7.60948 11.575 0 -680299 -2.0409e+06 -8.55026e+06 1.17831e+06 -3.50629e+06 6.07308e+06 -0.107968
28 2 9.33583 6.65829 8.425 0 -680299 -2.0409e+06 -8.55026e+06 1.17831e+06 -3.50629e+06 6.07308e+06 -0.107968
29 2 10.4342 10.463 11.575 0 -798341 -2.39502e+06 -7.82296e+06 1.38277e+06 -3.66379e+06 6.34587e+06 -0.135085
30 2 10.9833 9.51185 8.425 0 -798341 -2.39502e+06 -7.82296e+06 1.38277e+06 -3.66379e+06 6.34587e+06 -0.135085
31 2 8.78667 1.90237 11.575 0 -680299 -2.0409e+06 -8.55026e+06 1.17831e+06 -3.50629e+06 6.07308e+06 -0.107968
32 2 9.33583 0.951185 8.425 0 -680299 -2.0409e+06 -8.55026e+06 1.17831e+06 -3.50629e+06 6.07308e+06 -0.107968
33 2 10.4342 4.75592 11.575 0 -680299 -2.0409e+06 -8.55026e+06 1.17831e+06 -3.50629e+06 6.07308e+06 -0.107968
34 2 10.9833 3.80474 8.425 0 -680299 -2.0409e+06 -8.55026e+06 1.17831e+06 -3.50629e+06 6.07308e+06 -0.107968
35 2 12.0817 7.60948 11.575 0 -680299 -2.0409e+06 -8.55026e+06 1.17831e+06 -3.50629e+06 6.07308e+06 -0.107968
36 2 12.6308 6.65829 8.425 0 -680299 -2.0409e+06 -8.55026e+06 1.17831e+06 -3.50629e+06 6.07308e+06 -0.107968
37 2 13.7292 10.463 11.575 0 -680299 -2.0409e+06 -8.55026e+06 1.17831e+06 -3.50629e+06 6.07308e+06 -0.107968
38 2 14.2783 9.51185 8.425 0 -680299 -2.0409e+06 -8.55026e+06 1.17831e+06 -3.50629e+06 6.07308e+06 -0.107968
39 2 12.0817 1.90237 11.575 0 -680299 -2.0409e+06 -8.55026e+06 1.17831e+06 -3.50629e+06 6.07308e+06 -0.107968
40 2 12.6308 0.951185 8.425 0 -680299 -2.0409e+06 -8.55026e+06 1.17831e+06 -3.50629e+06 6.07308e+06 -0.107968
41 2 13.7292 4.75592 11.575 0 -798341 -2.39502e+06 -7.82296e+06 1.38277e+06 -3.66379e+06 6.34587e+06 -0.135085
42 2 14.2783 3.80474 8.425 0 -798341 -2.39502e+06 -7.82296e+06 1.38277e+06 -3.66379e+06 6.34587e+06 -0.135085
43 2 15.3767 7.60948 11.575 0 -680299 -2.0409e+06 -8.55026e+06 1.17831e+06 -3.50629e+06 6.07308e+06 -0.107968
44 2 15.9258 6.65829 8.425 0 -680299 -2.0409e+06 -8.55026e+06 1.17831e+06 -3.50629e+06 6.07308e+06 -0.107968
45 2 17.0242 10.463 11.575 0 -680299 -2.0409e+06 -8.55026e+06 1.17831e+06 -3.50629e+06 6.07308e+06 -0.107968
46 2 17.5733 9.51185 8.425 0 -680299 -2.0409e+06 -8.55026e+06 1.17831e+06 -3.50629e+06 6.07308e+06 -0.107968
ITEM: TIMESTEP
9
ITEM: NUMBER OF ATOMS
46
ITEM: BOX BOUNDS xy xz yz pp pp pp
0.0000000000000000e+00 1.9770000000000000e+01 6.5899999999999999e+00
0.0000000000000000e+00 1.1414214821900000e+01 0.0000000000000000e+00
0.0000000000000000e+00 2.0000000000000000e+01 0.0000000000000000e+00
ITEM: ATOMS id type x y z c_csym c_2[1] c_2[2] c_2[3] c_2[4] c_2[5] c_2[6] c_3
1 1 -0.000211539 -0.000122132 10 0 -885154 -2.65545e+06 -591100 1.53312e+06 38490.9 -66668.1 -2.44843
2 1 14.9964 2.56096 10.2794 0 133789 401215 6842.2 -231598 7692.39 -13323.6 -1.26135
3 1 3.2951 5.70717 9.99994 0 -884839 -2.65681e+06 -592653 1.53324e+06 39155.5 -67712.2 -2.44838
4 1 4.9425 8.56066 10 0 -885462 -2.65638e+06 -594274 1.53366e+06 38808.7 -67218.6 -2.44835
5 1 3.12607 0.292593 9.72058 0 133789 401215 6842.2 -231598 7692.39 -13323.6 -1.26135
6 1 4.94271 2.85368 10 0 -885154 -2.65545e+06 -591100 1.53312e+06 38490.9 -66668.1 -2.44843
7 1 6.59 5.70711 10 0 -885462 -2.65638e+06 -594274 1.53366e+06 38808.7 -67218.6 -2.44835
8 1 8.2374 8.5606 10.0001 0 -884839 -2.65681e+06 -592653 1.53324e+06 39155.5 -67712.2 -2.44838
9 1 6.5901 5.63281e-05 10.0001 0 -885986 -2.65566e+06 -592653 1.53391e+06 39062.8 -67765.7 -2.44838
10 1 8.2375 2.85355 10 0 -885462 -2.65638e+06 -594274 1.53366e+06 38808.7 -67218.6 -2.44835
11 1 9.885 5.70711 10 0 -885412 -2.65624e+06 -593592 1.53358e+06 38599 -66855.5 -2.44837
12 1 11.4845 8.64372 9.8999 0 169513 508539 -950367 -293605 62200.8 -107735 -2.48725
13 1 9.885 -6.99346e-12 10 0 -885462 -2.65638e+06 -594274 1.53366e+06 38808.7 -67218.6 -2.44835
14 1 11.5324 2.8535 9.99994 0 -885986 -2.65566e+06 -592653 1.53391e+06 39062.8 -67765.7 -2.44838
15 1 13.228 5.62404 10.1001 0 169513 508539 -950367 -293605 62200.8 -107735 -2.48725
16 1 14.8275 8.56066 10 0 -885412 -2.65624e+06 -593592 1.53358e+06 38599 -66855.5 -2.44837
17 2 4.11971 4.27676 11.8469 0 -845796 -2.53686e+06 501782 1.46485e+06 19431.4 -33113 -1.12259
18 2 4.11684 4.28339 8.15306 0 -845830 -2.53688e+06 500687 1.46484e+06 18872.3 -33839.4 -1.12257
19 2 5.76806 7.13074 11.8469 0 -845822 -2.53747e+06 500036 1.46501e+06 19354.2 -33522.5 -1.12254
20 2 5.76444 7.13703 8.15314 0 -845822 -2.53747e+06 500036 1.46501e+06 19354.2 -33522.5 -1.12254
21 2 7.41566 9.98438 11.8469 0 -845830 -2.53688e+06 500687 1.46484e+06 18872.3 -33839.4 -1.12257
22 2 7.41279 9.99101 8.15307 0 -845796 -2.53686e+06 501782 1.46485e+06 19431.4 -33113 -1.12259
23 2 5.76795 1.42359 11.8469 0 -845526 -2.53719e+06 500687 1.46467e+06 19869.6 -33263.6 -1.12257
24 2 5.76364 1.42939 8.15307 0 -845494 -2.53716e+06 501782 1.46468e+06 18961 -33384.6 -1.12259
25 2 7.41556 4.27719 11.8469 0 -845822 -2.53747e+06 500036 1.46501e+06 19354.2 -33522.5 -1.12254
26 2 7.41194 4.28347 8.15314 0 -845822 -2.53747e+06 500036 1.46501e+06 19354.2 -33522.5 -1.12254
27 2 9.06309 7.13071 11.8469 0 -845829 -2.53703e+06 500726 1.46489e+06 19387.3 -33668.4 -1.12255
28 2 9.05942 7.13707 8.15318 0 -846085 -2.53766e+06 500127 1.46529e+06 19526.3 -33663.9 -1.12254
29 2 10.563 10.2399 11.6229 0 -183124 -549373 490823 317181 68511.3 -118665 -1.22475
30 2 10.6548 10.0808 7.99715 0 -159056 -477151 419658 275478 -123474 213864 -1.22175
31 2 9.06306 1.42364 11.8469 0 -845822 -2.53747e+06 500036 1.46501e+06 19354.2 -33522.5 -1.12254
32 2 9.05944 1.42992 8.15314 0 -845822 -2.53747e+06 500036 1.46501e+06 19354.2 -33522.5 -1.12254
33 2 10.7106 4.27716 11.8468 0 -845789 -2.53796e+06 500127 1.46512e+06 19390.7 -33742.2 -1.12254
34 2 10.7069 4.28351 8.15306 0 -845599 -2.53726e+06 500726 1.46475e+06 19464 -33624.1 -1.12255
35 2 12.3045 7.22347 11.8448 0 -174682 -524045 328134 302557 -19280.8 33395.3 -1.18756
36 2 12.408 7.0443 8.1552 0 -174682 -524045 328134 302557 -19280.8 33395.3 -1.18756
37 2 14.0056 9.98426 11.8469 0 -845599 -2.53726e+06 500726 1.46475e+06 19464 -33624.1 -1.12255
38 2 14.0019 9.99061 8.15318 0 -845789 -2.53796e+06 500127 1.46512e+06 19390.7 -33742.2 -1.12254
39 2 12.3589 1.42416 11.8469 0 -845494 -2.53716e+06 501782 1.46468e+06 18961 -33384.6 -1.12259
40 2 12.3546 1.42996 8.15306 0 -845526 -2.53719e+06 500687 1.46467e+06 19869.6 -33263.6 -1.12257
41 2 14.0577 4.18695 12.0028 0 -159056 -477151 419658 275478 -123474 213864 -1.22175
42 2 14.1495 4.02785 8.37707 0 -183124 -549373 490823 317181 68511.3 -118665 -1.22475
43 2 15.6531 7.1307 11.8468 0 -846085 -2.53766e+06 500127 1.46529e+06 19526.3 -33663.9 -1.12254
44 2 15.6494 7.13706 8.15306 0 -845829 -2.53703e+06 500726 1.46489e+06 19387.3 -33668.4 -1.12255
45 2 17.3006 9.9843 11.8469 0 -845822 -2.53747e+06 500036 1.46501e+06 19354.2 -33522.5 -1.12254
46 2 17.2969 9.99058 8.15314 0 -845822 -2.53747e+06 500036 1.46501e+06 19354.2 -33522.5 -1.12254
