ITEM: TIMESTEP
0
ITEM: NUMBER OF ATOMS
48
ITEM: BOX BOUNDS xy xz yz pp pp pp
0.0000000000000000e+00 1.9770000000000000e+01 6.5899999999999999e+00
0.0000000000000000e+00 1.1414214821900000e+01 0.0000000000000000e+00
0.0000000000000000e+00 2.0000000000000000e+01 0.0000000000000000e+00
ITEM: ATOMS id type x y z c_csym c_2[1] c_2[2] c_2[3] c_2[4] c_2[5] c_2[6] c_3
1 1 0 0 10 3.63246e-29 3.44717e+06 -1.31921e+06 -1.59499e+07 4.12781e+06 -7.24224e+06 1.25439e+07 -0.485662
2 2 2.19667 1.90237 11.575 0 2.92199e+06 -2.89485e+06 -8.81644e+06 5.03753e+06 -3.67464e+06 6.36466e+06 0.387564
3 2 2.74583 0.951185 8.425 0 2.92199e+06 -2.89485e+06 -8.81644e+06 5.03753e+06 -3.67464e+06 6.36466e+06 0.387564
4 1 14.8275 2.85355 10 3e-20 -2.62728e+06 -5.23873e+06 -2.10629e+07 2.26158e+06 -6.65454e+06 1.1526e+07 0.411264
5 3 3.84417 4.75592 11.575 0 -993103 -2.21692e+06 -8.64824e+06 1.02167e+06 -3.34686e+06 6.11253e+06 -0.0972117
6 3 4.39333 3.80474 8.425 0 -807848 -2.29218e+06 -8.55391e+06 996851 -3.53896e+06 6.0209e+06 -0.0998975
7 1 3.295 5.70711 10 3e-20 -889506 -2.66852e+06 -1.82006e+07 1.54067e+06 -6.9071e+06 1.19635e+07 -0.299296
8 3 5.49167 7.60948 11.575 0 -680299 -2.0409e+06 -8.55026e+06 1.17831e+06 -3.50629e+06 6.07308e+06 -0.107968
9 3 6.04083 6.65829 8.425 0 -680299 -2.0409e+06 -8.55026e+06 1.17831e+06 -3.50629e+06 6.07308e+06 -0.107968
10 1 4.9425 8.56066 10 1.26218e-29 -889506 -2.66852e+06 -1.82006e+07 1.54067e+06 -6.9071e+06 1.19635e+07 -0.299296
11 3 7.13917 10.463 11.575 0 -807848 -2.29218e+06 -8.55391e+06 996851 -3.53896e+06 6.0209e+06 -0.0998975
12 3 7.68833 9.51185 8.425 0 -993103 -2.21692e+06 -8.64824e+06 1.02167e+06 -3.34686e+06 6.11253e+06 -0.0972117
13 1 3.295 0 10 8.55421e-30 -2.62728e+06 -5.23873e+06 -2.10629e+07 2.26158e+06 -6.65454e+06 1.1526e+07 0.411264
14 3 5.49167 1.90237 11.575 0 -1.0578e+06 -2.04223e+06 -8.55391e+06 1.14116e+06 -3.44478e+06 6.07528e+06 -0.0998975
15 3 6.04083 0.951185 8.425 0 -1.02618e+06 -2.18384e+06 -8.64824e+06 1.04076e+06 -3.62017e+06 5.95473e+06 -0.0972117
16 1 4.9425 2.85355 10 3e-20 3.44717e+06 -1.31921e+06 -1.59499e+07 4.12781e+06 -7.24224e+06 1.25439e+07 -0.485662
17 3 7.13917 4.75592 11.575 0 -680299 -2.0409e+06 -8.55026e+06 1.17831e+06 -3.50629e+06 6.07308e+06 -0.107968
18 3 7.68833 3.80474 8.425 0 -680299 -2.0409e+06 -8.55026e+06 1.17831e+06 -3.50629e+06 6.07308e+06 -0.107968
19 1 6.59 5.70711 10 3e-20 -889506 -2.66852e+06 -1.82006e+07 1.54067e+06 -6.9071e+06 1.19635e+07 -0.299296
20 3 8.78667 7.60948 11.575 0 -680299 -2.0409e+06 -8.55026e+06 1.17831e+06 -3.50629e+06 6.07308e+06 -0.107968
21 3 9.33583 6.65829 8.425 0 -680299 -2.0409e+06 -8.55026e+06 1.17831e+06 -3.50629e+06 6.07308e+06 -0.107968
22 1 8.2375 8.56066 10 2.52435e-29 -889506 -2.66852e+06 -1.82006e+07 1.54067e+06 -6.9071e+06 1.19635e+07 -0.299296
23 3 10.4342 10.463 11.575 0 -630446 -1.89134e+06 -8.67047e+06 1.09196e+06 -3.50275e+06 6.06695e+06 -0.101742
24 3 10.9833 9.51185 8.425 0 -685022 -2.05507e+06 -8.51265e+06 1.18649e+06 -3.51169e+06 6.08242e+06 -0.109189
25 1 6.59 0 10 3.82105e-30 -889506 -2.66852e+06 -1.82006e+07 1.54067e+06 -6.9071e+06 1.19635e+07 -0.299296
26 3 8.78667 1.90237 11.575 0 -680299 -2.0409e+06 -8.55026e+06 1.17831e+06 -3.50629e+06 6.07308e+06 -0.107968
27 3 9.33583 0.951185 8.425 0 -680299 -2.0409e+06 -8.55026e+06 1.17831e+06 -3.50629e+06 6.07308e+06 -0.107968
28 1 8.2375 2.85355 10 3e-20 -889506 -2.66852e+06 -1.82006e+07 1.54067e+06 -6.9071e+06 1.19635e+07 -0.299296
29 3 10.4342 4.75592 11.575 0 -680299 -2.0409e+06 -8.55026e+06 1.17831e+06 -3.50629e+06 6.07308e+06 -0.107968
30 3 10.9833 3.80474 8.425 0 -680299 -2.0409e+06 -8.55026e+06 1.17831e+06 -3.50629e+06 6.07308e+06 -0.107968
31 1 9.885 5.70711 10 3e-20 -889506 -2.66852e+06 -1.82006e+07 1.54067e+06 -6.9071e+06 1.19635e+07 -0.299296
32 3 12.0817 7.60948 11.575 0 -680299 -2.0409e+06 -8.55026e+06 1.17831e+06 -3.50629e+06 6.07308e+06 -0.107968
33 3 12.6308 6.65829 8.425 0 -680299 -2.0409e+06 -8.55026e+06 1.17831e+06 -3.50629e+06 6.07308e+06 -0.107968
34 1 11.5325 8.56066 10 1.26218e-29 -889506 -2.66852e+06 -1.82006e+07 1.54067e+06 -6.9071e+06 1.19635e+07 -0.299296
35 3 13.7292 10.463 11.575 0 -680299 -2.0409e+06 -8.55026e+06 1.17831e+06 -3.50629e+06 6.07308e+06 -0.107968
36 3 14.2783 9.51185 8.425 0 -680299 -2.0409e+06 -8.55026e+06 1.17831e+06 -3.50629e+06 6.07308e+06 -0.107968
37 1 9.885 0 10 2.59092e-29 -889506 -2.66852e+06 -1.82006e+07 1.54067e+06 -6.9071e+06 1.19635e+07 -0.299296
38 3 12.0817 1.90237 11.575 0 -1.02618e+06 -2.18384e+06 -8.64824e+06 1.04076e+06 -3.62017e+06 5.95473e+06 -0.0972117
39 3 12.6308 0.951185 8.425 0 -1.0578e+06 -2.04223e+06 -8.55391e+06 1.14116e+06 -3.44478e+06 6.07528e+06 -0.0998975
40 1 11.5325 2.85355 10 3e-20 -889506 -2.66852e+06 -1.82006e+07 1.54067e+06 -6.9071e+06 1.19635e+07 -0.299296
41 3 13.7292 4.75592 11.575 0 -685022 -2.05507e+06 -8.51265e+06 1.18649e+06 -3.51169e+06 6.08242e+06 -0.109189
42 3 14.2783 3.80474 8.425 0 -630446 -1.89134e+06 -8.67047e+06 1.09196e+06 -3.50275e+06 6.06695e+06 -0.101742
43 1 13.18 5.70711 10 3e-20 -889506 -2.66852e+06 -1.82006e+07 1.54067e+06 -6.9071e+06 1.19635e+07 -0.299296
44 3 15.3767 7.60948 11.575 0 -680299 -2.0409e+06 -8.55026e+06 1.17831e+06 -3.50629e+06 6.07308e+06 -0.107968
45 3 15.9258 6.65829 8.425 0 -680299 -2.0409e+06 -8.55026e+06 1.17831e+06 -3.50629e+06 6.07308e+06 -0.107968
46 1 14.8275 8.56066 10 3.78653e-29 -889506 -2.66852e+06 -1.82006e+07 1.54067e+06 -6.9071e+06 1.19635e+07 -0.299296
47 3 17.0242 10.463 11.575 0 -680299 -2.0409e+06 -8.55026e+06 1.17831e+06 -3.50629e+06 6.07308e+06 -0.107968
48 3 17.5733 9.51185 8.425 0 -680299 -2.0409e+06 -8.55026e+06 1.17831e+06 -3.50629e+06 6.07308e+06 -0.107968
ITEM: TIMESTEP
19
ITEM: NUMBER OF ATOMS
48
ITEM: BOX BOUNDS xy xz yz pp pp pp
0.0000000000000000e+00 1.9770000000000000e+01 6.5899999999999999e+00
0.0000000000000000e+00 1.1414214821900000e+01 0.0000000000000000e+00
0.0000000000000000e+00 2.0000000000000000e+01 0.0000000000000000e+00
ITEM: ATOMS id type x y z c_csym c_2[1] c_2[2] c_2[3] c_2[4] c_2[5] c_2[6] c_3
1 1 0.634063 0.366076 10 12.3936 1.8693e+06 -575110 -320604 2.11692e+06 53326.2 -92363.7 -3.54399
2 2 2.48054 1.41069 11.9299 0 902977 -1.1563e+06 568812 1.78339e+06 77177.7 -133676 -1.87377
3 2 2.46196 1.44286 8.07008 0 902977 -1.1563e+06 568812 1.78339e+06 77177.7 -133676 -1.87377
4 1 14.7333 3.01674 10.0001 5.97263 -953593 -2.84325e+06 -3.80302e+06 1.6365e+06 107286 -185824 -2.17481
5 3 4.43935 4.36199 11.6388 0 535920 -811967 193022 -44495.1 525439 -84520.5 -1.95846
6 3 4.4469 4.38077 8.37082 0 453884 -806530 141432 -74577.7 -622892 -62263 -1.95566
7 1 2.69929 5.27613 10.0052 0 5.33452e+06 1.3289e+06 4.86951e+06 1.81548e+06 55243.2 -52702.7 -3.58228
8 3 5.76096 7.12865 11.7708 0 -28537.8 -1.56287e+06 816971 -419461 3767.54 -99707.5 -1.21869
9 3 5.77154 7.13912 8.22924 0 -28537.8 -1.56287e+06 816971 -419461 3767.54 -99707.5 -1.21869
10 1 5.48251 8.90405 9.99583 0 -181829 -457192 -1.01862e+06 -399583 -83134.3 -157417 -3.86469
11 3 7.0856 9.887 11.6292 0 453884 -806530 141432 -74577.7 -622892 -62263 -1.95566
12 3 7.09315 9.90577 8.36124 0 535920 -811967 193022 -44495.1 525439 -84520.5 -1.95846
13 1 3.38921 -0.163184 9.99988 5.97263 -953593 -2.84325e+06 -3.80302e+06 1.6365e+06 107286 -185824 -2.17481
14 3 6.0173 1.66074 11.6292 0 -556012 203367 141432 508487 365367 508309 -1.95566
15 3 5.99727 1.66359 8.36124 0 -513529 237482 193022 561405 -189523 -497304 -1.95846
16 1 4.30844 2.48748 10 12.3936 1.8693e+06 -575110 -320604 2.11692e+06 53326.2 -92363.7 -3.54399
17 3 7.68984 4.43454 11.6636 0 2.82069e+06 699724 1.9875e+06 1.82247e+06 -2.56082e+06 -1.48272e+06 -1.49018
18 3 7.68535 4.44233 8.33638 0 2.80827e+06 712147 1.9875e+06 1.82964e+06 2.56448e+06 1.47637e+06 -1.49018
19 1 6.04999 5.36372 10.0042 0 -181829 -457192 -1.01862e+06 -399583 -83134.3 -157417 -3.86469
20 3 8.93647 7.15941 11.8041 0 -592362 -960701 755120 -73872.5 346061 -517943 -1.20899
21 3 8.93481 7.16337 8.18856 0 -547906 -925251 789889 -90278.4 -306375 430229 -1.21262
22 1 8.83321 8.99164 9.99483 0 5.33452e+06 1.3289e+06 4.86951e+06 1.81548e+06 55243.2 -52702.7 -3.58228
23 3 10.7385 9.93591 11.8023 0 2.99607e+06 -1.51562e+06 1.81566e+06 3.90724e+06 170310 -294986 -2.13918
24 3 10.7312 9.94854 8.19675 0 2.93829e+06 -1.51118e+06 1.72616e+06 3.85336e+06 -74824.1 129599 -2.1557
25 1 5.91891 -0.300407 9.99483 0 3.90256e+06 2.76086e+06 4.86951e+06 2.64222e+06 18020.2 -74193.4 -3.58228
26 3 9.06843 1.42874 11.7708 0 -1.54255e+06 -48857.9 816971 454657 84465.5 -53116.5 -1.21869
27 3 9.05407 1.42481 8.22924 0 -1.54255e+06 -48857.9 816971 454657 84465.5 -53116.5 -1.21869
28 1 7.67011 2.55758 9.99583 0 -734400 95378.9 -1.01862e+06 -80555.7 177895 -6712.22 -3.86469
29 3 10.6711 4.15609 11.8114 0 -909098 -564059 789889 118256 -219401 480443 -1.21262
30 3 10.6685 4.1595 8.19594 0 -932592 -620471 755120 122559 275522 -558669 -1.20899
31 1 9.86575 5.69599 10 8.33799 5.93301e+06 1.35699e+06 2.44441e+06 3.96295e+06 69015.3 -119538 -2.83935
32 3 12.3576 7.13157 11.8047 0 -647283 -1.94185e+06 12628.7 1.12113e+06 23518.3 -40734.9 -1.17494
33 3 12.3549 7.13619 8.1953 0 -647283 -1.94185e+06 12628.7 1.12113e+06 23518.3 -40734.9 -1.17494
34 1 11.5126 8.59513 9.9983 6.42092 -1.455e+06 -3.54904e+06 -2.25505e+06 1.81349e+06 59733.9 -103462 -2.40546
35 3 14.044 10.1083 11.8041 0 -932592 -620471 755120 122559 275522 -558669 -1.20899
36 3 14.0414 10.1117 8.18856 0 -909098 -564059 789889 118256 -219401 480443 -1.21262
37 1 10.4524 0.29597 10.0042 0 -734400 95378.9 -1.01862e+06 -80555.7 177895 -6712.22 -3.86469
38 3 12.1252 1.18996 11.6388 0 -513529 237482 193022 561405 -189523 -497304 -1.95846
39 3 12.1052 1.19281 8.37082 0 -556012 203367 141432 508487 365367 508309 -1.95566
40 1 12.2036 3.15396 10.0052 0 3.90256e+06 2.76086e+06 4.86951e+06 2.64222e+06 18020.2 -74193.4 -3.58228
41 3 13.9813 4.31923 11.8032 0 2.93829e+06 -1.51118e+06 1.72616e+06 3.85336e+06 -74824.1 129599 -2.1557
42 3 13.974 4.33186 8.19769 0 2.99607e+06 -1.51562e+06 1.81566e+06 3.90724e+06 170310 -294986 -2.13918
43 1 13.1999 5.67263 10.0017 6.42092 -1.455e+06 -3.54904e+06 -2.25505e+06 1.81349e+06 59733.9 -103462 -2.40546
44 3 15.7777 7.10439 11.8114 0 -547906 -925251 789889 -90278.4 -306375 430229 -1.21262
45 3 15.776 7.10835 8.19594 0 -592362 -960701 755120 -73872.5 346061 -517943 -1.20899
46 1 14.8467 8.57177 10 8.33799 5.93301e+06 1.35699e+06 2.44441e+06 3.96295e+06 69015.3 -119538 -2.83935
47 3 17.0272 9.82544 11.6636 0 2.80827e+06 712147 1.9875e+06 1.82964e+06 2.56448e+06 1.47637e+06 -1.49018
48 3 17.0227 9.83323 8.33638 0 2.82069e+06 699724 1.9875e+06 1.82247e+06 -2.56082e+06 -1.48272e+06 -1.49018
