ITEM: TIMESTEP
0
ITEM: NUMBER OF ATOMS
47
ITEM: BOX BOUNDS xy xz yz pp pp pp
0.0000000000000000e+00 1.9770000000000000e+01 6.5899999999999999e+00
0.0000000000000000e+00 1.1414214821900000e+01 0.0000000000000000e+00
0.0000000000000000e+00 2.0000000000000000e+01 0.0000000000000000e+00
ITEM: ATOMS id type x y z c_csym c_2[1] c_2[2] c_2[3] c_2[4] c_2[5] c_2[6] c_3
1 1 0 0 10 3.63246e-29 -889506 -2.66852e+06 -1.82006e+07 1.54067e+06 -6.9071e+06 1.19635e+07 -0.299296
2 1 14.8275 2.85355 10 3.68696 198854 596563 -8.65635e+06 -344426 -4.0802e+06 7.06711e+06 -0.719769
3 1 3.295 5.70711 10 3e-20 -889506 -2.66852e+06 -1.82006e+07 1.54067e+06 -6.9071e+06 1.19635e+07 -0.299296
4 1 4.9425 8.56066 10 1.26218e-29 -889506 -2.66852e+06 -1.82006e+07 1.54067e+06 -6.9071e+06 1.19635e+07 -0.299296
5 1 3.295 0 10 3.68696 -1.4046e+06 -4.21379e+06 -1.85351e+07 2.43283e+06 -6.37052e+06 1.10341e+07 0.204558
6 1 4.9425 2.85355 10 3.68696 -889506 -2.66852e+06 -1.82006e+07 1.54067e+06 -6.9071e+06 1.19635e+07 -0.299296
7 1 6.59 5.70711 10 3e-20 -889506 -2.66852e+06 -1.82006e+07 1.54067e+06 -6.9071e+06 1.19635e+07 -0.299296
8 1 8.2375 8.56066 10 2.52435e-29 -889506 -2.66852e+06 -1.82006e+07 1.54067e+06 -6.9071e+06 1.19635e+07 -0.299296
9 1 6.59 0 10 3.82105e-30 -889506 -2.66852e+06 -1.82006e+07 1.54067e+06 -6.9071e+06 1.19635e+07 -0.299296
10 1 8.2375 2.85355 10 3e-20 -889506 -2.66852e+06 -1.82006e+07 1.54067e+06 -6.9071e+06 1.19635e+07 -0.299296
11 1 9.885 5.70711 10 3e-20 -889506 -2.66852e+06 -1.82006e+07 1.54067e+06 -6.9071e+06 1.19635e+07 -0.299296
12 1 11.5325 8.56066 10 1.26218e-29 -889506 -2.66852e+06 -1.82006e+07 1.54067e+06 -6.9071e+06 1.19635e+07 -0.299296
13 1 9.885 0 10 2.59092e-29 -889506 -2.66852e+06 -1.82006e+07 1.54067e+06 -6.9071e+06 1.19635e+07 -0.299296
14 1 11.5325 2.85355 10 3e-20 -889506 -2.66852e+06 -1.82006e+07 1.54067e+06 -6.9071e+06 1.19635e+07 -0.299296
15 1 13.18 5.70711 10 3e-20 -889506 -2.66852e+06 -1.82006e+07 1.54067e+06 -6.9071e+06 1.19635e+07 -0.299296
16 1 14.8275 8.56066 10 3.78653e-29 -889506 -2.66852e+06 -1.82006e+07 1.54067e+06 -6.9071e+06 1.19635e+07 -0.299296
17 2 2.74583 0.951185 8.425 0 -187181 -561544 -9.78602e+06 324207 -3.37142e+06 5.83947e+06 -0.186269
18 2 3.84417 4.75592 11.575 0 -680299 -2.0409e+06 -8.55026e+06 1.17831e+06 -3.50629e+06 6.07308e+06 -0.107968
19 2 4.39333 3.80474 8.425 0 -680299 -2.0409e+06 -8.55026e+06 1.17831e+06 -3.50629e+06 6.07308e+06 -0.107968
20 2 5.49167 7.60948 11.575 0 -680299 -2.0409e+06 -8.55026e+06 1.17831e+06 -3.50629e+06 6.07308e+06 -0.107968
21 2 6.04083 6.65829 8.425 0 -680299 -2.0409e+06 -8.55026e+06 1.17831e+06 -3.50629e+06 6.07308e+06 -0.107968
22 2 7.13917 10.463 11.575 0 -680299 -2.0409e+06 -8.55026e+06 1.17831e+06 -3.50629e+06 6.07308e+06 -0.107968
23 2 7.68833 9.51185 8.425 0 -680299 -2.0409e+06 -8.55026e+06 1.17831e+06 -3.50629e+06 6.07308e+06 -0.107968
24 2 5.49167 1.90237 11.575 0 -680299 -2.0409e+06 -8.55026e+06 1.17831e+06 -3.50629e+06 6.07308e+06 -0.107968
25 2 6.04083 0.951185 8.425 0 -680299 -2.0409e+06 -8.55026e+06 1.17831e+06 -3.50629e+06 6.07308e+06 -0.107968
26 2 7.13917 4.75592 11.575 0 -680299 -2.0409e+06 -8.55026e+06 1.17831e+06 -3.50629e+06 6.07308e+06 -0.107968
27 2 7.68833 3.80474 8.425 0 -680299 -2.0409e+06 -8.55026e+06 1.17831e+06 -3.50629e+06 6.07308e+06 -0.107968
28 2 8.78667 7.60948 11.575 0 -680299 -2.0409e+06 -8.55026e+06 1.17831e+06 -3.50629e+06 6.07308e+06 -0.107968
29 2 9.33583 6.65829 8.425 0 -680299 -2.0409e+06 -8.55026e+06 1.17831e+06 -3.50629e+06 6.07308e+06 -0.107968
30 2 10.4342 10.463 11.575 0 -798341 -2.39502e+06 -7.82296e+06 1.38277e+06 -3.66379e+06 6.34587e+06 -0.135085
31 2 10.9833 9.51185 8.425 0 -680299 -2.0409e+06 -8.55026e+06 1.17831e+06 -3.50629e+06 6.07308e+06 -0.107968
32 2 8.78667 1.90237 11.575 0 -680299 -2.0409e+06 -8.55026e+06 1.17831e+06 -3.50629e+06 6.07308e+06 -0.107968
33 2 9.33583 0.951185 8.425 0 -680299 -2.0409e+06 -8.55026e+06 1.17831e+06 -3.50629e+06 6.07308e+06 -0.107968
34 2 10.4342 4.75592 11.575 0 -680299 -2.0409e+06 -8.55026e+06 1.17831e+06 -3.50629e+06 6.07308e+06 -0.107968
35 2 10.9833 3.80474 8.425 0 -680299 -2.0409e+06 -8.55026e+06 1.17831e+06 -3.50629e+06 6.07308e+06 -0.107968
36 2 12.0817 7.60948 11.575 0 -680299 -2.0409e+06 -8.55026e+06 1.17831e+06 -3.50629e+06 6.07308e+06 -0.107968
37 2 12.6308 6.65829 8.425 0 -680299 -2.0409e+06 -8.55026e+06 1.17831e+06 -3.50629e+06 6.07308e+06 -0.107968
38 2 13.7292 10.463 11.575 0 -680299 -2.0409e+06 -8.55026e+06 1.17831e+06 -3.50629e+06 6.07308e+06 -0.107968
39 2 14.2783 9.51185 8.425 0 -680299 -2.0409e+06 -8.55026e+06 1.17831e+06 -3.50629e+06 6.07308e+06 -0.107968
40 2 12.0817 1.90237 11.575 0 -680299 -2.0409e+06 -8.55026e+06 1.17831e+06 -3.50629e+06 6.07308e+06 -0.107968
41 2 12.6308 0.951185 8.425 0 -680299 -2.0409e+06 -8.55026e+06 1.17831e+06 -3.50629e+06 6.07308e+06 -0.107968
42 2 13.7292 4.75592 11.575 0 -798341 -2.39502e+06 -7.82296e+06 1.38277e+06 -3.66379e+06 6.34587e+06 -0.135085
43 2 14.2783 3.80474 8.425 0 -680299 -2.0409e+06 -8.55026e+06 1.17831e+06 -3.50629e+06 6.07308e+06 -0.107968
44 2 15.3767 7.60948 11.575 0 -680299 -2.0409e+06 -8.55026e+06 1.17831e+06 -3.50629e+06 6.07308e+06 -0.107968
45 2 15.9258 6.65829 8.425 0 -680299 -2.0409e+06 -8.55026e+06 1.17831e+06 -3.50629e+06 6.07308e+06 -0.107968
46 2 17.0242 10.463 11.575 0 -680299 -2.0409e+06 -8.55026e+06 1.17831e+06 -3.50629e+06 6.07308e+06 -0.107968
47 2 17.5733 9.51185 8.425 0 -680299 -2.0409e+06 -8.55026e+06 1.17831e+06 -3.50629e+06 6.07308e+06 -0.107968
ITEM: TIMESTEP
10
ITEM: NUMBER OF ATOMS
47
ITEM: BOX BOUNDS xy xz yz pp pp pp
0.0000000000000000e+00 1.9770000000000000e+01 6.5899999999999999e+00
0.0000000000000000e+00 1.1414214821900000e+01 0.0000000000000000e+00
0.0000000000000000e+00 2.0000000000000000e+01 0.0000000000000000e+00
ITEM: ATOMS id type x y z c_csym c_2[1] c_2[2] c_2[3] c_2[4] c_2[5] c_2[6] c_3
1 1 7.07804e-12 -8.9896e-12 10 0 -892449 -2.67735e+06 -713125 1.54577e+06 54041.2 -93602.1 -2.44573
2 1 14.9549 2.63283 10.0896 0 -436158 -1.30847e+06 42866.9 755448 195370 -338390 -1.87897
3 1 3.295 5.70711 10 0 -892449 -2.67735e+06 -713125 1.54577e+06 54041.2 -93602.1 -2.44573
4 1 4.9425 8.56066 10 0 -892449 -2.67735e+06 -713125 1.54577e+06 54041.2 -93602.1 -2.44573
5 1 3.22165 0.12705 10.014 0 -405593 -1.21678e+06 -90374.8 702507 -229856 398122 -1.88402
6 1 4.9425 2.85355 10 0 -892449 -2.67735e+06 -713125 1.54577e+06 54041.2 -93602.1 -2.44573
7 1 6.59 5.70711 10 0 -892449 -2.67735e+06 -713125 1.54577e+06 54041.2 -93602.1 -2.44573
8 1 8.2375 8.56066 10 0 -892449 -2.67735e+06 -713125 1.54577e+06 54041.2 -93602.1 -2.44573
9 1 6.59 -8.9897e-12 10 0 -892449 -2.67735e+06 -713125 1.54577e+06 54041.2 -93602.1 -2.44573
10 1 8.2375 2.85355 10 0 -892449 -2.67735e+06 -713125 1.54577e+06 54041.2 -93602.1 -2.44573
11 1 9.885 5.70711 10 0 -892449 -2.67735e+06 -713125 1.54577e+06 54041.2 -93602.1 -2.44573
12 1 11.5296 8.56566 9.99404 0 -252407 -757220 -1.00524e+06 437181 25156.7 -43572.6 -2.48607
13 1 9.885 -9.00178e-12 10 0 -892449 -2.67735e+06 -713125 1.54577e+06 54041.2 -93602.1 -2.44573
14 1 11.5325 2.85355 10 0 -892449 -2.67735e+06 -713125 1.54577e+06 54041.2 -93602.1 -2.44573
15 1 13.2337 5.61401 10.0584 0 -323735 -971205 -1.16657e+06 560726 178590 -309327 -2.47881
16 1 14.8275 8.56066 10 0 -892449 -2.67735e+06 -713125 1.54577e+06 54041.2 -93602.1 -2.44573
17 2 2.47364 1.42264 8.06043 0 -447629 -1.34289e+06 -225846 775316 15347.6 -26582.9 -1.27784
18 2 4.12127 4.27596 11.8439 0 -849899 -2.5497e+06 446709 1.47207e+06 26968.4 -46710.6 -1.12107
19 2 4.11623 4.2847 8.15611 0 -849899 -2.5497e+06 446709 1.47207e+06 26968.4 -46710.6 -1.12107
20 2 5.76877 7.12951 11.8439 0 -849899 -2.5497e+06 446709 1.47207e+06 26968.4 -46710.6 -1.12107
21 2 5.76373 7.13826 8.15611 0 -849899 -2.5497e+06 446709 1.47207e+06 26968.4 -46710.6 -1.12107
22 2 7.41627 9.98307 11.8439 0 -849899 -2.5497e+06 446709 1.47207e+06 26968.4 -46710.6 -1.12107
23 2 7.41123 9.99181 8.15611 0 -849899 -2.5497e+06 446709 1.47207e+06 26968.4 -46710.6 -1.12107
24 2 5.76877 1.4224 11.8439 0 -849899 -2.5497e+06 446709 1.47207e+06 26968.4 -46710.6 -1.12107
25 2 5.76373 1.43115 8.15611 0 -849899 -2.5497e+06 446709 1.47207e+06 26968.4 -46710.6 -1.12107
26 2 7.41627 4.27596 11.8439 0 -849899 -2.5497e+06 446709 1.47207e+06 26968.4 -46710.6 -1.12107
27 2 7.41123 4.2847 8.15611 0 -849899 -2.5497e+06 446709 1.47207e+06 26968.4 -46710.6 -1.12107
28 2 9.06377 7.12951 11.8439 0 -849899 -2.5497e+06 446709 1.47207e+06 26968.4 -46710.6 -1.12107
29 2 9.05873 7.13826 8.15611 0 -849899 -2.5497e+06 446709 1.47207e+06 26968.4 -46710.6 -1.12107
30 2 10.685 10.0286 11.8161 0 -509845 -1.52954e+06 390985 883078 110575 -191522 -1.19864
31 2 10.674 10.0477 8.17742 0 -465337 -1.39601e+06 497497 805988 -89342.2 154745 -1.19266
32 2 9.06377 1.4224 11.8439 0 -849899 -2.5497e+06 446709 1.47207e+06 26968.4 -46710.6 -1.12107
33 2 9.05873 1.43115 8.15611 0 -849899 -2.5497e+06 446709 1.47207e+06 26968.4 -46710.6 -1.12107
34 2 10.7113 4.27596 11.8439 0 -849899 -2.5497e+06 446709 1.47207e+06 26968.4 -46710.6 -1.12107
35 2 10.7062 4.2847 8.15611 0 -849899 -2.5497e+06 446709 1.47207e+06 26968.4 -46710.6 -1.12107
36 2 12.3715 7.10742 11.8667 0 -473247 -1.41974e+06 332517 819688 51324.9 -88897.4 -1.17108
37 2 12.4023 7.05414 8.17293 0 -422167 -1.2665e+06 416992 731214 -60333.3 104500 -1.16782
38 2 14.0063 9.98307 11.8439 0 -849899 -2.5497e+06 446709 1.47207e+06 26968.4 -46710.6 -1.12107
39 2 14.0012 9.99181 8.15611 0 -849899 -2.5497e+06 446709 1.47207e+06 26968.4 -46710.6 -1.12107
40 2 12.3588 1.4224 11.8439 0 -849899 -2.5497e+06 446709 1.47207e+06 26968.4 -46710.6 -1.12107
41 2 12.3537 1.43115 8.15611 0 -849899 -2.5497e+06 446709 1.47207e+06 26968.4 -46710.6 -1.12107
42 2 14.0822 4.14446 11.9052 0 -421794 -1.26538e+06 582341 730568 -53987.1 93508.4 -1.20142
43 2 14.0898 4.13136 8.27019 0 -580375 -1.74112e+06 498673 1.00524e+06 155587 -269485 -1.19229
44 2 15.6538 7.12951 11.8439 0 -849899 -2.5497e+06 446709 1.47207e+06 26968.4 -46710.6 -1.12107
45 2 15.6487 7.13826 8.15611 0 -849899 -2.5497e+06 446709 1.47207e+06 26968.4 -46710.6 -1.12107
46 2 17.3013 9.98307 11.8439 0 -849899 -2.5497e+06 446709 1.47207e+06 26968.4 -46710.6 -1.12107
47 2 17.2962 9.99181 8.15611 0 -849899 -2.5497e+06 446709 1.47207e+06 26968.4 -46710.6 -1.12107
